/*--------------------------------*- C++ -*----------------------------------*\
| =========                 |                                                 |
| \\      /  F ield         | OpenFOAM: The Open Source CFD Toolbox           |
|  \\    /   O peration     | Version:  2.3.0                                 |
|   \\  /    A nd           | Web:      www.OpenFOAM.org                      |
|    \\/     M anipulation  |                                                 |
\*---------------------------------------------------------------------------*/
FoamFile
{
    version     2.0;
    format      ascii;
    class       volScalarField;
    location    "5.3";
    object      gradTz;
}
// * * * * * * * * * * * * * * * * * * * * * * * * * * * * * * * * * * * * * //

dimensions      [0 -1 0 1 0 0 0];

internalField   nonuniform List<scalar> 
64
(
-0.0396586
-0.0396586
-0.0396586
-0.0396586
5
5
5
5
-1.27323e-08
-0.039662
-0.0399957
-1.26747e-08
-1.27317e-08
-1.26753e-08
-0.0399991
-1.27323e-08
-0.039662
-0.0399957
-1.26747e-08
-1.27317e-08
-1.26753e-08
-0.0399991
-1.27323e-08
-0.0399957
-0.039662
-1.26747e-08
-1.26753e-08
-1.27317e-08
-0.0399991
-1.27323e-08
-0.0399957
-0.039662
-1.26747e-08
-1.26753e-08
-1.27317e-08
-0.0399991
1.692e-06
1.692e-06
5
5
1.692e-06
1.692e-06
5
1.692e-06
1.692e-06
5
5
1.692e-06
1.692e-06
5
1.692e-06
1.692e-06
5
5
1.692e-06
1.692e-06
5
1.692e-06
1.692e-06
5
5
1.692e-06
1.692e-06
5
)
;

boundaryField
{
    walls
    {
        type            calculated;
        value           nonuniform List<scalar> 
64
(
-0.0396586
-0.0396586
-0.0396586
-0.0396586
5
5
-0.0396586
5
5
-0.0396586
-0.0396586
5
5
-0.0396586
5
5
-1.26747e-08
-1.26753e-08
-0.039662
-1.26747e-08
-1.27317e-08
-0.0399957
-0.0399957
-1.27317e-08
-1.26747e-08
-0.039662
-1.26753e-08
-1.26747e-08
5
1.692e-06
1.692e-06
1.692e-06
1.692e-06
5
-0.039662
-1.26753e-08
-1.26747e-08
5
1.692e-06
1.692e-06
1.692e-06
1.692e-06
5
-0.0399957
-1.27317e-08
-1.26747e-08
-1.26747e-08
-1.27317e-08
-0.0399957
5
1.692e-06
1.692e-06
1.692e-06
1.692e-06
5
-1.26747e-08
-1.26753e-08
-0.039662
5
1.692e-06
1.692e-06
1.692e-06
1.692e-06
5
)
;
    }
    inlet
    {
        type            calculated;
        value           nonuniform List<scalar> 
16
(
-0.0793172
-0.0793172
-0.0793172
-0.0793172
-0.0799914
-0.0799982
-0.079324
-0.079324
-0.0799982
-0.0799914
-0.0799914
-0.0799982
-0.079324
-0.079324
-0.0799982
-0.0799914
)
;
    }
    outlet
    {
        type            calculated;
        value           uniform 10;
    }
}


// ************************************************************************* //
