/*--------------------------------*- C++ -*----------------------------------*\
| =========                 |                                                 |
| \\      /  F ield         | OpenFOAM: The Open Source CFD Toolbox           |
|  \\    /   O peration     | Version:  2.3.0                                 |
|   \\  /    A nd           | Web:      www.OpenFOAM.org                      |
|    \\/     M anipulation  |                                                 |
\*---------------------------------------------------------------------------*/
FoamFile
{
    version     2.0;
    format      ascii;
    class       volScalarField;
    location    "5.3";
    object      T;
}
// * * * * * * * * * * * * * * * * * * * * * * * * * * * * * * * * * * * * * //

dimensions      [0 0 0 1 0 0 0];

internalField   nonuniform List<scalar> 
64
(
0.00853505
0.00853505
0.00853505
0.00853505
0.00861898
0.00861898
0.00861898
0.00861898
2.23822e-05
0.00845049
0.000107619
0.00853438
0.000106942
0.00844982
2.30587e-05
2.23822e-05
0.00845049
0.000107619
0.00853438
0.000106942
0.00844982
2.30587e-05
2.23822e-05
0.000107619
0.00845049
0.00853438
0.00844982
0.000106942
2.30587e-05
2.23822e-05
0.000107619
0.00845049
0.00853438
0.00844982
0.000106942
2.30587e-05
2.24221e-05
0.00853442
0.00853442
0.000191542
0.000106982
0.00844986
0.000106982
2.24221e-05
0.00853442
0.00853442
0.000191542
0.000106982
0.00844986
0.000106982
2.24221e-05
0.00853442
0.000191542
0.00853442
0.00844986
0.000106982
0.000106982
2.24221e-05
0.00853442
0.000191542
0.00853442
0.00844986
0.000106982
0.000106982
)
;

boundaryField
{
    walls
    {
        type            fixedGradient;
        gradient        uniform 10;
    }
    inlet
    {
        type            fixedValue;
        value           uniform 1;
    }
    outlet
    {
        type            fixedGradient;
        gradient        uniform 10;
    }
}


// ************************************************************************* //
