/*--------------------------------*- C++ -*----------------------------------*\
| =========                 |                                                 |
| \\      /  F ield         | OpenFOAM: The Open Source CFD Toolbox           |
|  \\    /   O peration     | Version:  2.3.0                                 |
|   \\  /    A nd           | Web:      www.OpenFOAM.org                      |
|    \\/     M anipulation  |                                                 |
\*---------------------------------------------------------------------------*/
FoamFile
{
    version     2.0;
    format      ascii;
    class       volScalarField;
    location    "2.4";
    object      gradTz;
}
// * * * * * * * * * * * * * * * * * * * * * * * * * * * * * * * * * * * * * //

dimensions      [0 -1 0 1 0 0 0];

internalField   nonuniform List<scalar> 
64
(
-0.0398456
-0.0398456
-0.0398456
-0.0398456
5
5
5
5
-5.30868e-09
-0.0398471
-0.039998
-5.29691e-09
-5.30856e-09
-5.29703e-09
-0.0399996
-5.30868e-09
-0.0398471
-0.039998
-5.29691e-09
-5.30856e-09
-5.29703e-09
-0.0399996
-5.30868e-09
-0.039998
-0.0398471
-5.29691e-09
-5.29703e-09
-5.30856e-09
-0.0399996
-5.30868e-09
-0.039998
-0.0398471
-5.29691e-09
-5.29703e-09
-5.30856e-09
-0.0399996
7.63997e-07
7.63997e-07
5
5
7.63997e-07
7.63997e-07
5
7.63997e-07
7.63997e-07
5
5
7.63997e-07
7.63997e-07
5
7.63997e-07
7.63997e-07
5
5
7.63997e-07
7.63997e-07
5
7.63997e-07
7.63997e-07
5
5
7.63997e-07
7.63997e-07
5
)
;

boundaryField
{
    walls
    {
        type            calculated;
        value           nonuniform List<scalar> 
64
(
-0.0398456
-0.0398456
-0.0398456
-0.0398456
5
5
-0.0398456
5
5
-0.0398456
-0.0398456
5
5
-0.0398456
5
5
-5.29691e-09
-5.29703e-09
-0.0398471
-5.29691e-09
-5.30856e-09
-0.039998
-0.039998
-5.30856e-09
-5.29691e-09
-0.0398471
-5.29703e-09
-5.29691e-09
5
7.63997e-07
7.63997e-07
7.63997e-07
7.63997e-07
5
-0.0398471
-5.29703e-09
-5.29691e-09
5
7.63997e-07
7.63997e-07
7.63997e-07
7.63997e-07
5
-0.039998
-5.30856e-09
-5.29691e-09
-5.29691e-09
-5.30856e-09
-0.039998
5
7.63997e-07
7.63997e-07
7.63997e-07
7.63997e-07
5
-5.29691e-09
-5.29703e-09
-0.0398471
5
7.63997e-07
7.63997e-07
7.63997e-07
7.63997e-07
5
)
;
    }
    inlet
    {
        type            calculated;
        value           nonuniform List<scalar> 
16
(
-0.0796912
-0.0796912
-0.0796912
-0.0796912
-0.079996
-0.0799991
-0.0796943
-0.0796943
-0.0799991
-0.079996
-0.079996
-0.0799991
-0.0796943
-0.0796943
-0.0799991
-0.079996
)
;
    }
    outlet
    {
        type            calculated;
        value           uniform 10;
    }
}


// ************************************************************************* //
