/*--------------------------------*- C++ -*----------------------------------*\
| =========                 |                                                 |
| \\      /  F ield         | OpenFOAM: The Open Source CFD Toolbox           |
|  \\    /   O peration     | Version:  2.3.0                                 |
|   \\  /    A nd           | Web:      www.OpenFOAM.org                      |
|    \\/     M anipulation  |                                                 |
\*---------------------------------------------------------------------------*/
FoamFile
{
    version     2.0;
    format      ascii;
    class       volScalarField;
    location    "2.4";
    object      T;
}
// * * * * * * * * * * * * * * * * * * * * * * * * * * * * * * * * * * * * * //

dimensions      [0 0 0 1 0 0 0];

internalField   nonuniform List<scalar> 
64
(
0.00385965
0.00385965
0.00385965
0.00385965
0.00389754
0.00389754
0.00389754
0.00389754
1.10157e-05
0.00382149
4.9481e-05
0.00385934
4.91757e-05
0.00382118
1.1321e-05
1.10157e-05
0.00382149
4.9481e-05
0.00385934
4.91757e-05
0.00382118
1.1321e-05
1.10157e-05
4.9481e-05
0.00382149
0.00385934
0.00382118
4.91757e-05
1.1321e-05
1.10157e-05
4.9481e-05
0.00382149
0.00385934
0.00382118
4.91757e-05
1.1321e-05
1.10555e-05
0.00385938
0.00385938
8.73755e-05
4.92155e-05
0.00382122
4.92155e-05
1.10555e-05
0.00385938
0.00385938
8.73755e-05
4.92155e-05
0.00382122
4.92155e-05
1.10555e-05
0.00385938
8.73755e-05
0.00385938
0.00382122
4.92155e-05
4.92155e-05
1.10555e-05
0.00385938
8.73755e-05
0.00385938
0.00382122
4.92155e-05
4.92155e-05
)
;

boundaryField
{
    walls
    {
        type            fixedGradient;
        gradient        uniform 10;
    }
    inlet
    {
        type            fixedValue;
        value           uniform 1;
    }
    outlet
    {
        type            fixedGradient;
        gradient        uniform 10;
    }
}


// ************************************************************************* //
