/*--------------------------------*- C++ -*----------------------------------*\
| =========                 |                                                 |
| \\      /  F ield         | OpenFOAM: The Open Source CFD Toolbox           |
|  \\    /   O peration     | Version:  2.3.0                                 |
|   \\  /    A nd           | Web:      www.OpenFOAM.org                      |
|    \\/     M anipulation  |                                                 |
\*---------------------------------------------------------------------------*/
FoamFile
{
    version     2.0;
    format      ascii;
    class       volScalarField;
    location    "2.5";
    object      T;
}
// * * * * * * * * * * * * * * * * * * * * * * * * * * * * * * * * * * * * * //

dimensions      [0 0 0 1 0 0 0];

internalField   nonuniform List<scalar> 
64
(
0.00402101
0.00402101
0.00402101
0.00402101
0.0040605
0.0040605
0.0040605
0.0040605
1.12649e-05
0.00398125
5.1343e-05
0.0040207
5.10249e-05
0.00398094
1.1583e-05
1.12649e-05
0.00398125
5.1343e-05
0.0040207
5.10249e-05
0.00398094
1.1583e-05
1.12649e-05
5.1343e-05
0.00398125
0.0040207
0.00398094
5.10249e-05
1.1583e-05
1.12649e-05
5.1343e-05
0.00398125
0.0040207
0.00398094
5.10249e-05
1.1583e-05
1.13048e-05
0.00402074
0.00402074
9.08247e-05
5.10647e-05
0.00398098
5.10647e-05
1.13048e-05
0.00402074
0.00402074
9.08247e-05
5.10647e-05
0.00398098
5.10647e-05
1.13048e-05
0.00402074
9.08247e-05
0.00402074
0.00398098
5.10647e-05
5.10647e-05
1.13048e-05
0.00402074
9.08247e-05
0.00402074
0.00398098
5.10647e-05
5.10647e-05
)
;

boundaryField
{
    walls
    {
        type            fixedGradient;
        gradient        uniform 10;
    }
    inlet
    {
        type            fixedValue;
        value           uniform 1;
    }
    outlet
    {
        type            fixedGradient;
        gradient        uniform 10;
    }
}


// ************************************************************************* //
