/*--------------------------------*- C++ -*----------------------------------*\
| =========                 |                                                 |
| \\      /  F ield         | OpenFOAM: The Open Source CFD Toolbox           |
|  \\    /   O peration     | Version:  2.3.0                                 |
|   \\  /    A nd           | Web:      www.OpenFOAM.org                      |
|    \\/     M anipulation  |                                                 |
\*---------------------------------------------------------------------------*/
FoamFile
{
    version     2.0;
    format      ascii;
    class       volScalarField;
    location    "9.6";
    object      gradTz;
}
// * * * * * * * * * * * * * * * * * * * * * * * * * * * * * * * * * * * * * //

dimensions      [0 -1 0 1 0 0 0];

internalField   nonuniform List<scalar> 
64
(
-0.039382
-0.039382
-0.039382
-0.039382
5
5
5
5
-2.37389e-08
-0.0393881
-0.0399916
-2.35503e-08
-2.3737e-08
-2.35522e-08
-0.0399978
-2.37389e-08
-0.0393881
-0.0399916
-2.35503e-08
-2.3737e-08
-2.35522e-08
-0.0399978
-2.37389e-08
-0.0399916
-0.0393881
-2.35503e-08
-2.35522e-08
-2.3737e-08
-0.0399978
-2.37389e-08
-0.0399916
-0.0393881
-2.35503e-08
-2.35522e-08
-2.3737e-08
-0.0399978
3.068e-06
3.068e-06
5
5
3.068e-06
3.068e-06
5
3.068e-06
3.068e-06
5
5
3.068e-06
3.068e-06
5
3.068e-06
3.068e-06
5
5
3.068e-06
3.068e-06
5
3.068e-06
3.068e-06
5
5
3.068e-06
3.068e-06
5
)
;

boundaryField
{
    walls
    {
        type            calculated;
        value           nonuniform List<scalar> 
64
(
-0.039382
-0.039382
-0.039382
-0.039382
5
5
-0.039382
5
5
-0.039382
-0.039382
5
5
-0.039382
5
5
-2.35503e-08
-2.35522e-08
-0.0393881
-2.35503e-08
-2.3737e-08
-0.0399916
-0.0399916
-2.3737e-08
-2.35503e-08
-0.0393881
-2.35522e-08
-2.35503e-08
5
3.068e-06
3.068e-06
3.068e-06
3.068e-06
5
-0.0393881
-2.35522e-08
-2.35503e-08
5
3.068e-06
3.068e-06
3.068e-06
3.068e-06
5
-0.0399916
-2.3737e-08
-2.35503e-08
-2.35503e-08
-2.3737e-08
-0.0399916
5
3.068e-06
3.068e-06
3.068e-06
3.068e-06
5
-2.35503e-08
-2.35522e-08
-0.0393881
5
3.068e-06
3.068e-06
3.068e-06
3.068e-06
5
)
;
    }
    inlet
    {
        type            calculated;
        value           nonuniform List<scalar> 
16
(
-0.0787639
-0.0787639
-0.0787639
-0.0787639
-0.0799832
-0.0799955
-0.0787761
-0.0787761
-0.0799955
-0.0799832
-0.0799832
-0.0799955
-0.0787761
-0.0787761
-0.0799955
-0.0799832
)
;
    }
    outlet
    {
        type            calculated;
        value           uniform 10;
    }
}


// ************************************************************************* //
