/*--------------------------------*- C++ -*----------------------------------*\
| =========                 |                                                 |
| \\      /  F ield         | OpenFOAM: The Open Source CFD Toolbox           |
|  \\    /   O peration     | Version:  2.3.0                                 |
|   \\  /    A nd           | Web:      www.OpenFOAM.org                      |
|    \\/     M anipulation  |                                                 |
\*---------------------------------------------------------------------------*/
FoamFile
{
    version     2.0;
    format      ascii;
    class       volScalarField;
    location    "2.6";
    object      gradTz;
}
// * * * * * * * * * * * * * * * * * * * * * * * * * * * * * * * * * * * * * //

dimensions      [0 -1 0 1 0 0 0];

internalField   nonuniform List<scalar> 
64
(
-0.0398327
-0.0398327
-0.0398327
-0.0398327
5
5
5
5
-5.82066e-09
-0.0398344
-0.0399979
-5.80684e-09
-5.82052e-09
-5.80698e-09
-0.0399995
-5.82066e-09
-0.0398344
-0.0399979
-5.80684e-09
-5.82052e-09
-5.80698e-09
-0.0399995
-5.82066e-09
-0.0399979
-0.0398344
-5.80684e-09
-5.80698e-09
-5.82052e-09
-0.0399995
-5.82066e-09
-0.0399979
-0.0398344
-5.80684e-09
-5.80698e-09
-5.82052e-09
-0.0399995
8.27997e-07
8.27997e-07
5
5
8.27997e-07
8.27997e-07
5
8.27997e-07
8.27997e-07
5
5
8.27997e-07
8.27997e-07
5
8.27997e-07
8.27997e-07
5
5
8.27997e-07
8.27997e-07
5
8.27997e-07
8.27997e-07
5
5
8.27997e-07
8.27997e-07
5
)
;

boundaryField
{
    walls
    {
        type            calculated;
        value           nonuniform List<scalar> 
64
(
-0.0398327
-0.0398327
-0.0398327
-0.0398327
5
5
-0.0398327
5
5
-0.0398327
-0.0398327
5
5
-0.0398327
5
5
-5.80684e-09
-5.80698e-09
-0.0398344
-5.80684e-09
-5.82052e-09
-0.0399979
-0.0399979
-5.82052e-09
-5.80684e-09
-0.0398344
-5.80698e-09
-5.80684e-09
5
8.27997e-07
8.27997e-07
8.27997e-07
8.27997e-07
5
-0.0398344
-5.80698e-09
-5.80684e-09
5
8.27997e-07
8.27997e-07
8.27997e-07
8.27997e-07
5
-0.0399979
-5.82052e-09
-5.80684e-09
-5.80684e-09
-5.82052e-09
-0.0399979
5
8.27997e-07
8.27997e-07
8.27997e-07
8.27997e-07
5
-5.80684e-09
-5.80698e-09
-0.0398344
5
8.27997e-07
8.27997e-07
8.27997e-07
8.27997e-07
5
)
;
    }
    inlet
    {
        type            calculated;
        value           nonuniform List<scalar> 
16
(
-0.0796654
-0.0796654
-0.0796654
-0.0796654
-0.0799957
-0.0799991
-0.0796687
-0.0796687
-0.0799991
-0.0799957
-0.0799957
-0.0799991
-0.0796687
-0.0796687
-0.0799991
-0.0799957
)
;
    }
    outlet
    {
        type            calculated;
        value           uniform 10;
    }
}


// ************************************************************************* //
