/*--------------------------------*- C++ -*----------------------------------*\
| =========                 |                                                 |
| \\      /  F ield         | OpenFOAM: The Open Source CFD Toolbox           |
|  \\    /   O peration     | Version:  2.3.0                                 |
|   \\  /    A nd           | Web:      www.OpenFOAM.org                      |
|    \\/     M anipulation  |                                                 |
\*---------------------------------------------------------------------------*/
FoamFile
{
    version     2.0;
    format      ascii;
    class       volScalarField;
    location    "2.6";
    object      T;
}
// * * * * * * * * * * * * * * * * * * * * * * * * * * * * * * * * * * * * * //

dimensions      [0 0 0 1 0 0 0];

internalField   nonuniform List<scalar> 
64
(
0.00418237
0.00418237
0.00418237
0.00418237
0.00422344
0.00422344
0.00422344
0.00422344
1.15243e-05
0.00414101
5.32152e-05
0.00418204
5.28843e-05
0.00414068
1.18552e-05
1.15243e-05
0.00414101
5.32152e-05
0.00418204
5.28843e-05
0.00414068
1.18552e-05
1.15243e-05
5.32152e-05
0.00414101
0.00418204
0.00414068
5.28843e-05
1.18552e-05
1.15243e-05
5.32152e-05
0.00414101
0.00418204
0.00414068
5.28843e-05
1.18552e-05
1.15642e-05
0.00418208
0.00418208
9.42842e-05
5.29242e-05
0.00414072
5.29242e-05
1.15642e-05
0.00418208
0.00418208
9.42842e-05
5.29242e-05
0.00414072
5.29242e-05
1.15642e-05
0.00418208
9.42842e-05
0.00418208
0.00414072
5.29242e-05
5.29242e-05
1.15642e-05
0.00418208
9.42842e-05
0.00418208
0.00414072
5.29242e-05
5.29242e-05
)
;

boundaryField
{
    walls
    {
        type            fixedGradient;
        gradient        uniform 10;
    }
    inlet
    {
        type            fixedValue;
        value           uniform 1;
    }
    outlet
    {
        type            fixedGradient;
        gradient        uniform 10;
    }
}


// ************************************************************************* //
