/*--------------------------------*- C++ -*----------------------------------*\
| =========                 |                                                 |
| \\      /  F ield         | OpenFOAM: The Open Source CFD Toolbox           |
|  \\    /   O peration     | Version:  2.3.0                                 |
|   \\  /    A nd           | Web:      www.OpenFOAM.org                      |
|    \\/     M anipulation  |                                                 |
\*---------------------------------------------------------------------------*/
FoamFile
{
    version     2.0;
    format      ascii;
    class       volScalarField;
    location    "6.3";
    object      T;
}
// * * * * * * * * * * * * * * * * * * * * * * * * * * * * * * * * * * * * * //

dimensions      [0 0 0 1 0 0 0];

internalField   nonuniform List<scalar> 
64
(
0.0101453
0.0101453
0.0101453
0.0101453
0.0102451
0.0102451
0.0102451
0.0102451
2.82867e-05
0.0100447
0.000129651
0.0101445
0.000128847
0.0100439
2.90911e-05
2.82867e-05
0.0100447
0.000129651
0.0101445
0.000128847
0.0100439
2.90911e-05
2.82867e-05
0.000129651
0.0100447
0.0101445
0.0100439
0.000128847
2.90911e-05
2.82867e-05
0.000129651
0.0100447
0.0101445
0.0100439
0.000128847
2.90911e-05
2.83265e-05
0.0101445
0.0101445
0.000229446
0.000128887
0.010044
0.000128887
2.83265e-05
0.0101445
0.0101445
0.000229446
0.000128887
0.010044
0.000128887
2.83265e-05
0.0101445
0.000229446
0.0101445
0.010044
0.000128887
0.000128887
2.83265e-05
0.0101445
0.000229446
0.0101445
0.010044
0.000128887
0.000128887
)
;

boundaryField
{
    walls
    {
        type            fixedGradient;
        gradient        uniform 10;
    }
    inlet
    {
        type            fixedValue;
        value           uniform 1;
    }
    outlet
    {
        type            fixedGradient;
        gradient        uniform 10;
    }
}


// ************************************************************************* //
