/*--------------------------------*- C++ -*----------------------------------*\
| =========                 |                                                 |
| \\      /  F ield         | OpenFOAM: The Open Source CFD Toolbox           |
|  \\    /   O peration     | Version:  2.3.0                                 |
|   \\  /    A nd           | Web:      www.OpenFOAM.org                      |
|    \\/     M anipulation  |                                                 |
\*---------------------------------------------------------------------------*/
FoamFile
{
    version     2.0;
    format      ascii;
    class       volScalarField;
    location    "1.7";
    object      T;
}
// * * * * * * * * * * * * * * * * * * * * * * * * * * * * * * * * * * * * * //

dimensions      [0 0 0 1 0 0 0];

internalField   nonuniform List<scalar> 
64
(
0.00272982
0.00272982
0.00272982
0.00272982
0.0027566
0.0027566
0.0027566
0.0027566
9.55714e-06
0.00270286
3.67328e-05
0.0027296
3.65171e-05
0.00270264
9.77282e-06
9.55714e-06
0.00270286
3.67328e-05
0.0027296
3.65171e-05
0.00270264
9.77282e-06
9.55714e-06
3.67328e-05
0.00270286
0.0027296
0.00270264
3.65171e-05
9.77282e-06
9.55714e-06
3.67328e-05
0.00270286
0.0027296
0.00270264
3.65171e-05
9.77282e-06
9.59699e-06
0.00272964
0.00272964
6.3517e-05
3.6557e-05
0.00270268
3.6557e-05
9.59699e-06
0.00272964
0.00272964
6.3517e-05
3.6557e-05
0.00270268
3.6557e-05
9.59699e-06
0.00272964
6.3517e-05
0.00272964
0.00270268
3.6557e-05
3.6557e-05
9.59699e-06
0.00272964
6.3517e-05
0.00272964
0.00270268
3.6557e-05
3.6557e-05
)
;

boundaryField
{
    walls
    {
        type            fixedGradient;
        gradient        uniform 10;
    }
    inlet
    {
        type            fixedValue;
        value           uniform 1;
    }
    outlet
    {
        type            fixedGradient;
        gradient        uniform 10;
    }
}


// ************************************************************************* //
