/*--------------------------------*- C++ -*----------------------------------*\
| =========                 |                                                 |
| \\      /  F ield         | OpenFOAM: The Open Source CFD Toolbox           |
|  \\    /   O peration     | Version:  2.3.0                                 |
|   \\  /    A nd           | Web:      www.OpenFOAM.org                      |
|    \\/     M anipulation  |                                                 |
\*---------------------------------------------------------------------------*/
FoamFile
{
    version     2.0;
    format      ascii;
    class       volScalarField;
    location    "5";
    object      gradTz;
}
// * * * * * * * * * * * * * * * * * * * * * * * * * * * * * * * * * * * * * //

dimensions      [0 -1 0 1 0 0 0];

internalField   nonuniform List<scalar> 
64
(
-0.0396779
-0.0396779
-0.0396779
-0.0396779
5
5
5
5
-1.19643e-08
-0.0396811
-0.039996
-1.19131e-08
-1.19638e-08
-1.19136e-08
-0.0399992
-1.19643e-08
-0.0396811
-0.039996
-1.19131e-08
-1.19638e-08
-1.19136e-08
-0.0399992
-1.19643e-08
-0.039996
-0.0396811
-1.19131e-08
-1.19136e-08
-1.19638e-08
-0.0399992
-1.19643e-08
-0.039996
-0.0396811
-1.19131e-08
-1.19136e-08
-1.19638e-08
-0.0399992
1.596e-06
1.596e-06
5
5
1.596e-06
1.596e-06
5
1.596e-06
1.596e-06
5
5
1.596e-06
1.596e-06
5
1.596e-06
1.596e-06
5
5
1.596e-06
1.596e-06
5
1.596e-06
1.596e-06
5
5
1.596e-06
1.596e-06
5
)
;

boundaryField
{
    walls
    {
        type            calculated;
        value           nonuniform List<scalar> 
64
(
-0.0396779
-0.0396779
-0.0396779
-0.0396779
5
5
-0.0396779
5
5
-0.0396779
-0.0396779
5
5
-0.0396779
5
5
-1.19131e-08
-1.19136e-08
-0.0396811
-1.19131e-08
-1.19638e-08
-0.039996
-0.039996
-1.19638e-08
-1.19131e-08
-0.0396811
-1.19136e-08
-1.19131e-08
5
1.596e-06
1.596e-06
1.596e-06
1.596e-06
5
-0.0396811
-1.19136e-08
-1.19131e-08
5
1.596e-06
1.596e-06
1.596e-06
1.596e-06
5
-0.039996
-1.19638e-08
-1.19131e-08
-1.19131e-08
-1.19638e-08
-0.039996
5
1.596e-06
1.596e-06
1.596e-06
1.596e-06
5
-1.19131e-08
-1.19136e-08
-0.0396811
5
1.596e-06
1.596e-06
1.596e-06
1.596e-06
5
)
;
    }
    inlet
    {
        type            calculated;
        value           nonuniform List<scalar> 
16
(
-0.0793559
-0.0793559
-0.0793559
-0.0793559
-0.0799919
-0.0799983
-0.0793622
-0.0793622
-0.0799983
-0.0799919
-0.0799919
-0.0799983
-0.0793622
-0.0793622
-0.0799983
-0.0799919
)
;
    }
    outlet
    {
        type            calculated;
        value           uniform 10;
    }
}


// ************************************************************************* //
