/*--------------------------------*- C++ -*----------------------------------*\
| =========                 |                                                 |
| \\      /  F ield         | OpenFOAM: The Open Source CFD Toolbox           |
|  \\    /   O peration     | Version:  2.3.0                                 |
|   \\  /    A nd           | Web:      www.OpenFOAM.org                      |
|    \\/     M anipulation  |                                                 |
\*---------------------------------------------------------------------------*/
FoamFile
{
    version     2.0;
    format      ascii;
    class       volScalarField;
    location    "5";
    object      T;
}
// * * * * * * * * * * * * * * * * * * * * * * * * * * * * * * * * * * * * * //

dimensions      [0 0 0 1 0 0 0];

internalField   nonuniform List<scalar> 
64
(
0.00805179
0.00805179
0.00805179
0.00805179
0.00813095
0.00813095
0.00813095
0.00813095
2.08092e-05
0.00797203
0.000101207
0.00805115
0.000100569
0.00797139
2.14473e-05
2.08092e-05
0.00797203
0.000101207
0.00805115
0.000100569
0.00797139
2.14473e-05
2.08092e-05
0.000101207
0.00797203
0.00805115
0.00797139
0.000100569
2.14473e-05
2.08092e-05
0.000101207
0.00797203
0.00805115
0.00797139
0.000100569
2.14473e-05
2.0849e-05
0.00805119
0.00805119
0.000180369
0.000100609
0.00797143
0.000100609
2.0849e-05
0.00805119
0.00805119
0.000180369
0.000100609
0.00797143
0.000100609
2.0849e-05
0.00805119
0.000180369
0.00805119
0.00797143
0.000100609
0.000100609
2.0849e-05
0.00805119
0.000180369
0.00805119
0.00797143
0.000100609
0.000100609
)
;

boundaryField
{
    walls
    {
        type            fixedGradient;
        gradient        uniform 10;
    }
    inlet
    {
        type            fixedValue;
        value           uniform 1;
    }
    outlet
    {
        type            fixedGradient;
        gradient        uniform 10;
    }
}


// ************************************************************************* //
