/*--------------------------------*- C++ -*----------------------------------*\
| =========                 |                                                 |
| \\      /  F ield         | OpenFOAM: The Open Source CFD Toolbox           |
|  \\    /   O peration     | Version:  2.3.0                                 |
|   \\  /    A nd           | Web:      www.OpenFOAM.org                      |
|    \\/     M anipulation  |                                                 |
\*---------------------------------------------------------------------------*/
FoamFile
{
    version     2.0;
    format      ascii;
    class       volScalarField;
    location    "2.7";
    object      gradTz;
}
// * * * * * * * * * * * * * * * * * * * * * * * * * * * * * * * * * * * * * //

dimensions      [0 -1 0 1 0 0 0];

internalField   nonuniform List<scalar> 
64
(
-0.0398263
-0.0398263
-0.0398263
-0.0398263
5
5
5
5
-6.07665e-09
-0.039828
-0.0399978
-6.06175e-09
-6.0765e-09
-6.06189e-09
-0.0399995
-6.07665e-09
-0.039828
-0.0399978
-6.06175e-09
-6.0765e-09
-6.06189e-09
-0.0399995
-6.07665e-09
-0.0399978
-0.039828
-6.06175e-09
-6.06189e-09
-6.0765e-09
-0.0399995
-6.07665e-09
-0.0399978
-0.039828
-6.06175e-09
-6.06189e-09
-6.0765e-09
-0.0399995
8.59997e-07
8.59997e-07
5
5
8.59997e-07
8.59997e-07
5
8.59997e-07
8.59997e-07
5
5
8.59997e-07
8.59997e-07
5
8.59997e-07
8.59997e-07
5
5
8.59997e-07
8.59997e-07
5
8.59997e-07
8.59997e-07
5
5
8.59997e-07
8.59997e-07
5
)
;

boundaryField
{
    walls
    {
        type            calculated;
        value           nonuniform List<scalar> 
64
(
-0.0398263
-0.0398263
-0.0398263
-0.0398263
5
5
-0.0398263
5
5
-0.0398263
-0.0398263
5
5
-0.0398263
5
5
-6.06175e-09
-6.06189e-09
-0.039828
-6.06175e-09
-6.0765e-09
-0.0399978
-0.0399978
-6.0765e-09
-6.06175e-09
-0.039828
-6.06189e-09
-6.06175e-09
5
8.59997e-07
8.59997e-07
8.59997e-07
8.59997e-07
5
-0.039828
-6.06189e-09
-6.06175e-09
5
8.59997e-07
8.59997e-07
8.59997e-07
8.59997e-07
5
-0.0399978
-6.0765e-09
-6.06175e-09
-6.06175e-09
-6.0765e-09
-0.0399978
5
8.59997e-07
8.59997e-07
8.59997e-07
8.59997e-07
5
-6.06175e-09
-6.06189e-09
-0.039828
5
8.59997e-07
8.59997e-07
8.59997e-07
8.59997e-07
5
)
;
    }
    inlet
    {
        type            calculated;
        value           nonuniform List<scalar> 
16
(
-0.0796525
-0.0796525
-0.0796525
-0.0796525
-0.0799956
-0.079999
-0.0796559
-0.0796559
-0.079999
-0.0799956
-0.0799956
-0.079999
-0.0796559
-0.0796559
-0.079999
-0.0799956
)
;
    }
    outlet
    {
        type            calculated;
        value           uniform 10;
    }
}


// ************************************************************************* //
