/*--------------------------------*- C++ -*----------------------------------*\
| =========                 |                                                 |
| \\      /  F ield         | OpenFOAM: The Open Source CFD Toolbox           |
|  \\    /   O peration     | Version:  2.3.0                                 |
|   \\  /    A nd           | Web:      www.OpenFOAM.org                      |
|    \\/     M anipulation  |                                                 |
\*---------------------------------------------------------------------------*/
FoamFile
{
    version     2.0;
    format      ascii;
    class       volScalarField;
    location    "2.7";
    object      T;
}
// * * * * * * * * * * * * * * * * * * * * * * * * * * * * * * * * * * * * * //

dimensions      [0 0 0 1 0 0 0];

internalField   nonuniform List<scalar> 
64
(
0.00434371
0.00434371
0.00434371
0.00434371
0.00438637
0.00438637
0.00438637
0.00438637
1.1794e-05
0.00430075
5.50976e-05
0.00434337
5.47539e-05
0.00430041
1.21376e-05
1.1794e-05
0.00430075
5.50976e-05
0.00434337
5.47539e-05
0.00430041
1.21376e-05
1.1794e-05
5.50976e-05
0.00430075
0.00434337
0.00430041
5.47539e-05
1.21376e-05
1.1794e-05
5.50976e-05
0.00430075
0.00434337
0.00430041
5.47539e-05
1.21376e-05
1.18338e-05
0.00434341
0.00434341
9.77538e-05
5.47938e-05
0.00430045
5.47938e-05
1.18338e-05
0.00434341
0.00434341
9.77538e-05
5.47938e-05
0.00430045
5.47938e-05
1.18338e-05
0.00434341
9.77538e-05
0.00434341
0.00430045
5.47938e-05
5.47938e-05
1.18338e-05
0.00434341
9.77538e-05
0.00434341
0.00430045
5.47938e-05
5.47938e-05
)
;

boundaryField
{
    walls
    {
        type            fixedGradient;
        gradient        uniform 10;
    }
    inlet
    {
        type            fixedValue;
        value           uniform 1;
    }
    outlet
    {
        type            fixedGradient;
        gradient        uniform 10;
    }
}


// ************************************************************************* //
