/*--------------------------------*- C++ -*----------------------------------*\
| =========                 |                                                 |
| \\      /  F ield         | OpenFOAM: The Open Source CFD Toolbox           |
|  \\    /   O peration     | Version:  2.3.0                                 |
|   \\  /    A nd           | Web:      www.OpenFOAM.org                      |
|    \\/     M anipulation  |                                                 |
\*---------------------------------------------------------------------------*/
FoamFile
{
    version     2.0;
    format      ascii;
    class       volScalarField;
    location    "3.1";
    object      T;
}
// * * * * * * * * * * * * * * * * * * * * * * * * * * * * * * * * * * * * * //

dimensions      [0 0 0 1 0 0 0];

internalField   nonuniform List<scalar> 
64
(
0.00498898
0.00498898
0.00498898
0.00498898
0.00503799
0.00503799
0.00503799
0.00503799
1.29745e-05
0.00493962
6.27293e-05
0.00498859
6.23345e-05
0.00493923
1.33694e-05
1.29745e-05
0.00493962
6.27293e-05
0.00498859
6.23345e-05
0.00493923
1.33694e-05
1.29745e-05
6.27293e-05
0.00493962
0.00498859
0.00493923
6.23345e-05
1.33694e-05
1.29745e-05
6.27293e-05
0.00493962
0.00498859
0.00493923
6.23345e-05
1.33694e-05
1.30143e-05
0.00498863
0.00498863
0.000111734
6.23743e-05
0.00493927
6.23743e-05
1.30143e-05
0.00498863
0.00498863
0.000111734
6.23743e-05
0.00493927
6.23743e-05
1.30143e-05
0.00498863
0.000111734
0.00498863
0.00493927
6.23743e-05
6.23743e-05
1.30143e-05
0.00498863
0.000111734
0.00498863
0.00493927
6.23743e-05
6.23743e-05
)
;

boundaryField
{
    walls
    {
        type            fixedGradient;
        gradient        uniform 10;
    }
    inlet
    {
        type            fixedValue;
        value           uniform 1;
    }
    outlet
    {
        type            fixedGradient;
        gradient        uniform 10;
    }
}


// ************************************************************************* //
