/*--------------------------------*- C++ -*----------------------------------*\
| =========                 |                                                 |
| \\      /  F ield         | OpenFOAM: The Open Source CFD Toolbox           |
|  \\    /   O peration     | Version:  2.3.0                                 |
|   \\  /    A nd           | Web:      www.OpenFOAM.org                      |
|    \\/     M anipulation  |                                                 |
\*---------------------------------------------------------------------------*/
FoamFile
{
    version     2.0;
    format      ascii;
    class       volScalarField;
    location    "9";
    object      gradTz;
}
// * * * * * * * * * * * * * * * * * * * * * * * * * * * * * * * * * * * * * //

dimensions      [0 -1 0 1 0 0 0];

internalField   nonuniform List<scalar> 
64
(
-0.0394205
-0.0394205
-0.0394205
-0.0394205
5
5
5
5
-2.22031e-08
-0.0394263
-0.0399923
-2.20373e-08
-2.22015e-08
-2.2039e-08
-0.039998
-2.22031e-08
-0.0394263
-0.0399923
-2.20373e-08
-2.22015e-08
-2.2039e-08
-0.039998
-2.22031e-08
-0.0399923
-0.0394263
-2.20373e-08
-2.2039e-08
-2.22015e-08
-0.039998
-2.22031e-08
-0.0399923
-0.0394263
-2.20373e-08
-2.2039e-08
-2.22015e-08
-0.039998
2.876e-06
2.876e-06
5
5
2.876e-06
2.876e-06
5
2.876e-06
2.876e-06
5
5
2.876e-06
2.876e-06
5
2.876e-06
2.876e-06
5
5
2.876e-06
2.876e-06
5
2.876e-06
2.876e-06
5
5
2.876e-06
2.876e-06
5
)
;

boundaryField
{
    walls
    {
        type            calculated;
        value           nonuniform List<scalar> 
64
(
-0.0394205
-0.0394205
-0.0394205
-0.0394205
5
5
-0.0394205
5
5
-0.0394205
-0.0394205
5
5
-0.0394205
5
5
-2.20373e-08
-2.2039e-08
-0.0394263
-2.20373e-08
-2.22015e-08
-0.0399923
-0.0399923
-2.22015e-08
-2.20373e-08
-0.0394263
-2.2039e-08
-2.20373e-08
5
2.876e-06
2.876e-06
2.876e-06
2.876e-06
5
-0.0394263
-2.2039e-08
-2.20373e-08
5
2.876e-06
2.876e-06
2.876e-06
2.876e-06
5
-0.0399923
-2.22015e-08
-2.20373e-08
-2.20373e-08
-2.22015e-08
-0.0399923
5
2.876e-06
2.876e-06
2.876e-06
2.876e-06
5
-2.20373e-08
-2.2039e-08
-0.0394263
5
2.876e-06
2.876e-06
2.876e-06
2.876e-06
5
)
;
    }
    inlet
    {
        type            calculated;
        value           nonuniform List<scalar> 
16
(
-0.078841
-0.078841
-0.078841
-0.078841
-0.0799845
-0.079996
-0.0788525
-0.0788525
-0.079996
-0.0799845
-0.0799845
-0.079996
-0.0788525
-0.0788525
-0.079996
-0.0799845
)
;
    }
    outlet
    {
        type            calculated;
        value           uniform 10;
    }
}


// ************************************************************************* //
