/*--------------------------------*- C++ -*----------------------------------*\
| =========                 |                                                 |
| \\      /  F ield         | OpenFOAM: The Open Source CFD Toolbox           |
|  \\    /   O peration     | Version:  2.3.0                                 |
|   \\  /    A nd           | Web:      www.OpenFOAM.org                      |
|    \\/     M anipulation  |                                                 |
\*---------------------------------------------------------------------------*/
FoamFile
{
    version     2.0;
    format      ascii;
    class       volScalarField;
    location    "9";
    object      T;
}
// * * * * * * * * * * * * * * * * * * * * * * * * * * * * * * * * * * * * * //

dimensions      [0 0 0 1 0 0 0];

internalField   nonuniform List<scalar> 
64
(
0.0144878
0.0144878
0.0144878
0.0144878
0.0146305
0.0146305
0.0146305
0.0146305
4.92989e-05
0.014344
0.000194209
0.0144867
0.000193059
0.0143429
5.04489e-05
4.92989e-05
0.014344
0.000194209
0.0144867
0.000193059
0.0143429
5.04489e-05
4.92989e-05
0.000194209
0.014344
0.0144867
0.0143429
0.000193059
5.04489e-05
4.92989e-05
0.000194209
0.014344
0.0144867
0.0143429
0.000193059
5.04489e-05
4.93387e-05
0.0144867
0.0144867
0.000336859
0.000193099
0.0143429
0.000193099
4.93387e-05
0.0144867
0.0144867
0.000336859
0.000193099
0.0143429
0.000193099
4.93387e-05
0.0144867
0.000336859
0.0144867
0.0143429
0.000193099
0.000193099
4.93387e-05
0.0144867
0.000336859
0.0144867
0.0143429
0.000193099
0.000193099
)
;

boundaryField
{
    walls
    {
        type            fixedGradient;
        gradient        uniform 10;
    }
    inlet
    {
        type            fixedValue;
        value           uniform 1;
    }
    outlet
    {
        type            fixedGradient;
        gradient        uniform 10;
    }
}


// ************************************************************************* //
