/*--------------------------------*- C++ -*----------------------------------*\
| =========                 |                                                 |
| \\      /  F ield         | OpenFOAM: The Open Source CFD Toolbox           |
|  \\    /   O peration     | Version:  2.3.0                                 |
|   \\  /    A nd           | Web:      www.OpenFOAM.org                      |
|    \\/     M anipulation  |                                                 |
\*---------------------------------------------------------------------------*/
FoamFile
{
    version     2.0;
    format      ascii;
    class       volScalarField;
    location    "8.5";
    object      gradTz;
}
// * * * * * * * * * * * * * * * * * * * * * * * * * * * * * * * * * * * * * //

dimensions      [0 -1 0 1 0 0 0];

internalField   nonuniform List<scalar> 
64
(
-0.0394527
-0.0394527
-0.0394527
-0.0394527
5
5
5
5
-2.09233e-08
-0.0394581
-0.0399928
-2.07754e-08
-2.09219e-08
-2.07769e-08
-0.0399982
-2.09233e-08
-0.0394581
-0.0399928
-2.07754e-08
-2.09219e-08
-2.07769e-08
-0.0399982
-2.09233e-08
-0.0399928
-0.0394581
-2.07754e-08
-2.07769e-08
-2.09219e-08
-0.0399982
-2.09233e-08
-0.0399928
-0.0394581
-2.07754e-08
-2.07769e-08
-2.09219e-08
-0.0399982
2.716e-06
2.716e-06
5
5
2.716e-06
2.716e-06
5
2.716e-06
2.716e-06
5
5
2.716e-06
2.716e-06
5
2.716e-06
2.716e-06
5
5
2.716e-06
2.716e-06
5
2.716e-06
2.716e-06
5
5
2.716e-06
2.716e-06
5
)
;

boundaryField
{
    walls
    {
        type            calculated;
        value           nonuniform List<scalar> 
64
(
-0.0394527
-0.0394527
-0.0394527
-0.0394527
5
5
-0.0394527
5
5
-0.0394527
-0.0394527
5
5
-0.0394527
5
5
-2.07754e-08
-2.07769e-08
-0.0394581
-2.07754e-08
-2.09219e-08
-0.0399928
-0.0399928
-2.09219e-08
-2.07754e-08
-0.0394581
-2.07769e-08
-2.07754e-08
5
2.716e-06
2.716e-06
2.716e-06
2.716e-06
5
-0.0394581
-2.07769e-08
-2.07754e-08
5
2.716e-06
2.716e-06
2.716e-06
2.716e-06
5
-0.0399928
-2.09219e-08
-2.07754e-08
-2.07754e-08
-2.09219e-08
-0.0399928
5
2.716e-06
2.716e-06
2.716e-06
2.716e-06
5
-2.07754e-08
-2.07769e-08
-0.0394581
5
2.716e-06
2.716e-06
2.716e-06
2.716e-06
5
)
;
    }
    inlet
    {
        type            calculated;
        value           nonuniform List<scalar> 
16
(
-0.0789053
-0.0789053
-0.0789053
-0.0789053
-0.0799855
-0.0799963
-0.0789161
-0.0789161
-0.0799963
-0.0799855
-0.0799855
-0.0799963
-0.0789161
-0.0789161
-0.0799963
-0.0799855
)
;
    }
    outlet
    {
        type            calculated;
        value           uniform 10;
    }
}


// ************************************************************************* //
