/*--------------------------------*- C++ -*----------------------------------*\
| =========                 |                                                 |
| \\      /  F ield         | OpenFOAM: The Open Source CFD Toolbox           |
|  \\    /   O peration     | Version:  2.3.0                                 |
|   \\  /    A nd           | Web:      www.OpenFOAM.org                      |
|    \\/     M anipulation  |                                                 |
\*---------------------------------------------------------------------------*/
FoamFile
{
    version     2.0;
    format      ascii;
    class       volScalarField;
    location    "8.5";
    object      T;
}
// * * * * * * * * * * * * * * * * * * * * * * * * * * * * * * * * * * * * * //

dimensions      [0 0 0 1 0 0 0];

internalField   nonuniform List<scalar> 
64
(
0.0136842
0.0136842
0.0136842
0.0136842
0.0138189
0.0138189
0.0138189
0.0138189
4.48502e-05
0.0135484
0.000181696
0.0136831
0.00018061
0.0135474
4.59362e-05
4.48502e-05
0.0135484
0.000181696
0.0136831
0.00018061
0.0135474
4.59362e-05
4.48502e-05
0.000181696
0.0135484
0.0136831
0.0135474
0.00018061
4.59362e-05
4.48502e-05
0.000181696
0.0135484
0.0136831
0.0135474
0.00018061
4.59362e-05
4.48901e-05
0.0136832
0.0136832
0.00031641
0.00018065
0.0135474
0.00018065
4.48901e-05
0.0136832
0.0136832
0.00031641
0.00018065
0.0135474
0.00018065
4.48901e-05
0.0136832
0.00031641
0.0136832
0.0135474
0.00018065
0.00018065
4.48901e-05
0.0136832
0.00031641
0.0136832
0.0135474
0.00018065
0.00018065
)
;

boundaryField
{
    walls
    {
        type            fixedGradient;
        gradient        uniform 10;
    }
    inlet
    {
        type            fixedValue;
        value           uniform 1;
    }
    outlet
    {
        type            fixedGradient;
        gradient        uniform 10;
    }
}


// ************************************************************************* //
