/*--------------------------------*- C++ -*----------------------------------*\
| =========                 |                                                 |
| \\      /  F ield         | OpenFOAM: The Open Source CFD Toolbox           |
|  \\    /   O peration     | Version:  2.3.0                                 |
|   \\  /    A nd           | Web:      www.OpenFOAM.org                      |
|    \\/     M anipulation  |                                                 |
\*---------------------------------------------------------------------------*/
FoamFile
{
    version     2.0;
    format      ascii;
    class       volScalarField;
    location    "2";
    object      gradTz;
}
// * * * * * * * * * * * * * * * * * * * * * * * * * * * * * * * * * * * * * //

dimensions      [0 -1 0 1 0 0 0];

internalField   nonuniform List<scalar> 
64
(
-0.0398714
-0.0398714
-0.0398714
-0.0398714
5
5
5
5
-4.28471e-09
-0.0398727
-0.0399983
-4.27655e-09
-4.28463e-09
-4.27663e-09
-0.0399996
-4.28471e-09
-0.0398727
-0.0399983
-4.27655e-09
-4.28463e-09
-4.27663e-09
-0.0399996
-4.28471e-09
-0.0399983
-0.0398727
-4.27655e-09
-4.27663e-09
-4.28463e-09
-0.0399996
-4.28471e-09
-0.0399983
-0.0398727
-4.27655e-09
-4.27663e-09
-4.28463e-09
-0.0399996
6.35997e-07
6.35997e-07
5
5
6.35997e-07
6.35997e-07
5
6.35997e-07
6.35997e-07
5
5
6.35997e-07
6.35997e-07
5
6.35997e-07
6.35997e-07
5
5
6.35997e-07
6.35997e-07
5
6.35997e-07
6.35997e-07
5
5
6.35997e-07
6.35997e-07
5
)
;

boundaryField
{
    walls
    {
        type            calculated;
        value           nonuniform List<scalar> 
64
(
-0.0398714
-0.0398714
-0.0398714
-0.0398714
5
5
-0.0398714
5
5
-0.0398714
-0.0398714
5
5
-0.0398714
5
5
-4.27655e-09
-4.27663e-09
-0.0398727
-4.27655e-09
-4.28463e-09
-0.0399983
-0.0399983
-4.28463e-09
-4.27655e-09
-0.0398727
-4.27663e-09
-4.27655e-09
5
6.35997e-07
6.35997e-07
6.35997e-07
6.35997e-07
5
-0.0398727
-4.27663e-09
-4.27655e-09
5
6.35997e-07
6.35997e-07
6.35997e-07
6.35997e-07
5
-0.0399983
-4.28463e-09
-4.27655e-09
-4.27655e-09
-4.28463e-09
-0.0399983
5
6.35997e-07
6.35997e-07
6.35997e-07
6.35997e-07
5
-4.27655e-09
-4.27663e-09
-0.0398727
5
6.35997e-07
6.35997e-07
6.35997e-07
6.35997e-07
5
)
;
    }
    inlet
    {
        type            calculated;
        value           nonuniform List<scalar> 
16
(
-0.0797429
-0.0797429
-0.0797429
-0.0797429
-0.0799966
-0.0799992
-0.0797454
-0.0797454
-0.0799992
-0.0799966
-0.0799966
-0.0799992
-0.0797454
-0.0797454
-0.0799992
-0.0799966
)
;
    }
    outlet
    {
        type            calculated;
        value           uniform 10;
    }
}


// ************************************************************************* //
