/*--------------------------------*- C++ -*----------------------------------*\
| =========                 |                                                 |
| \\      /  F ield         | OpenFOAM: The Open Source CFD Toolbox           |
|  \\    /   O peration     | Version:  2.3.0                                 |
|   \\  /    A nd           | Web:      www.OpenFOAM.org                      |
|    \\/     M anipulation  |                                                 |
\*---------------------------------------------------------------------------*/
FoamFile
{
    version     2.0;
    format      ascii;
    class       volScalarField;
    location    "2";
    object      T;
}
// * * * * * * * * * * * * * * * * * * * * * * * * * * * * * * * * * * * * * //

dimensions      [0 0 0 1 0 0 0];

internalField   nonuniform List<scalar> 
64
(
0.00321409
0.00321409
0.00321409
0.00321409
0.00324564
0.00324564
0.00324564
0.00324564
1.0121e-05
0.00318233
4.2135e-05
0.00321384
4.1881e-05
0.00318208
1.0375e-05
1.0121e-05
0.00318233
4.2135e-05
0.00321384
4.1881e-05
0.00318208
1.0375e-05
1.0121e-05
4.2135e-05
0.00318233
0.00321384
0.00318208
4.1881e-05
1.0375e-05
1.0121e-05
4.2135e-05
0.00318233
0.00321384
0.00318208
4.1881e-05
1.0375e-05
1.01608e-05
0.00321388
0.00321388
7.36808e-05
4.19208e-05
0.00318212
4.19208e-05
1.01608e-05
0.00321388
0.00321388
7.36808e-05
4.19208e-05
0.00318212
4.19208e-05
1.01608e-05
0.00321388
7.36808e-05
0.00321388
0.00318212
4.19208e-05
4.19208e-05
1.01608e-05
0.00321388
7.36808e-05
0.00321388
0.00318212
4.19208e-05
4.19208e-05
)
;

boundaryField
{
    walls
    {
        type            fixedGradient;
        gradient        uniform 10;
    }
    inlet
    {
        type            fixedValue;
        value           uniform 1;
    }
    outlet
    {
        type            fixedGradient;
        gradient        uniform 10;
    }
}


// ************************************************************************* //
