/*--------------------------------*- C++ -*----------------------------------*\
| =========                 |                                                 |
| \\      /  F ield         | OpenFOAM: The Open Source CFD Toolbox           |
|  \\    /   O peration     | Version:  2.3.0                                 |
|   \\  /    A nd           | Web:      www.OpenFOAM.org                      |
|    \\/     M anipulation  |                                                 |
\*---------------------------------------------------------------------------*/
FoamFile
{
    version     2.0;
    format      ascii;
    class       volScalarField;
    location    "6.7";
    object      T;
}
// * * * * * * * * * * * * * * * * * * * * * * * * * * * * * * * * * * * * * //

dimensions      [0 0 0 1 0 0 0];

internalField   nonuniform List<scalar> 
64
(
0.0107891
0.0107891
0.0107891
0.0107891
0.0108952
0.0108952
0.0108952
0.0108952
3.0933e-05
0.0106821
0.000138749
0.0107882
0.000137893
0.0106813
3.17886e-05
3.0933e-05
0.0106821
0.000138749
0.0107882
0.000137893
0.0106813
3.17886e-05
3.0933e-05
0.000138749
0.0106821
0.0107882
0.0106813
0.000137893
3.17886e-05
3.0933e-05
0.000138749
0.0106821
0.0107882
0.0106813
0.000137893
3.17886e-05
3.09728e-05
0.0107883
0.0107883
0.000244893
0.000137933
0.0106813
0.000137933
3.09728e-05
0.0107883
0.0107883
0.000244893
0.000137933
0.0106813
0.000137933
3.09728e-05
0.0107883
0.000244893
0.0107883
0.0106813
0.000137933
0.000137933
3.09728e-05
0.0107883
0.000244893
0.0107883
0.0106813
0.000137933
0.000137933
)
;

boundaryField
{
    walls
    {
        type            fixedGradient;
        gradient        uniform 10;
    }
    inlet
    {
        type            fixedValue;
        value           uniform 1;
    }
    outlet
    {
        type            fixedGradient;
        gradient        uniform 10;
    }
}


// ************************************************************************* //
