/*--------------------------------*- C++ -*----------------------------------*\
| =========                 |                                                 |
| \\      /  F ield         | OpenFOAM: The Open Source CFD Toolbox           |
|  \\    /   O peration     | Version:  2.3.0                                 |
|   \\  /    A nd           | Web:      www.OpenFOAM.org                      |
|    \\/     M anipulation  |                                                 |
\*---------------------------------------------------------------------------*/
FoamFile
{
    version     2.0;
    format      ascii;
    class       volScalarField;
    location    "3.6";
    object      gradTz;
}
// * * * * * * * * * * * * * * * * * * * * * * * * * * * * * * * * * * * * * //

dimensions      [0 -1 0 1 0 0 0];

internalField   nonuniform List<scalar> 
64
(
-0.0397682
-0.0397682
-0.0397682
-0.0397682
5
5
5
5
-8.38055e-09
-0.0397705
-0.0399971
-8.35401e-09
-8.38029e-09
-8.35427e-09
-0.0399994
-8.38055e-09
-0.0397705
-0.0399971
-8.35401e-09
-8.38029e-09
-8.35427e-09
-0.0399994
-8.38055e-09
-0.0399971
-0.0397705
-8.35401e-09
-8.35427e-09
-8.38029e-09
-0.0399994
-8.38055e-09
-0.0399971
-0.0397705
-8.35401e-09
-8.35427e-09
-8.38029e-09
-0.0399994
1.148e-06
1.148e-06
5
5
1.148e-06
1.148e-06
5
1.148e-06
1.148e-06
5
5
1.148e-06
1.148e-06
5
1.148e-06
1.148e-06
5
5
1.148e-06
1.148e-06
5
1.148e-06
1.148e-06
5
5
1.148e-06
1.148e-06
5
)
;

boundaryField
{
    walls
    {
        type            calculated;
        value           nonuniform List<scalar> 
64
(
-0.0397682
-0.0397682
-0.0397682
-0.0397682
5
5
-0.0397682
5
5
-0.0397682
-0.0397682
5
5
-0.0397682
5
5
-8.35401e-09
-8.35427e-09
-0.0397705
-8.35401e-09
-8.38029e-09
-0.0399971
-0.0399971
-8.38029e-09
-8.35401e-09
-0.0397705
-8.35427e-09
-8.35401e-09
5
1.148e-06
1.148e-06
1.148e-06
1.148e-06
5
-0.0397705
-8.35427e-09
-8.35401e-09
5
1.148e-06
1.148e-06
1.148e-06
1.148e-06
5
-0.0399971
-8.38029e-09
-8.35401e-09
-8.35401e-09
-8.38029e-09
-0.0399971
5
1.148e-06
1.148e-06
1.148e-06
1.148e-06
5
-8.35401e-09
-8.35427e-09
-0.0397705
5
1.148e-06
1.148e-06
1.148e-06
1.148e-06
5
)
;
    }
    inlet
    {
        type            calculated;
        value           nonuniform List<scalar> 
16
(
-0.0795364
-0.0795364
-0.0795364
-0.0795364
-0.0799942
-0.0799988
-0.079541
-0.079541
-0.0799988
-0.0799942
-0.0799942
-0.0799988
-0.079541
-0.079541
-0.0799988
-0.0799942
)
;
    }
    outlet
    {
        type            calculated;
        value           uniform 10;
    }
}


// ************************************************************************* //
