/*--------------------------------*- C++ -*----------------------------------*\
| =========                 |                                                 |
| \\      /  F ield         | OpenFOAM: The Open Source CFD Toolbox           |
|  \\    /   O peration     | Version:  2.3.0                                 |
|   \\  /    A nd           | Web:      www.OpenFOAM.org                      |
|    \\/     M anipulation  |                                                 |
\*---------------------------------------------------------------------------*/
FoamFile
{
    version     2.0;
    format      ascii;
    class       volScalarField;
    location    "3.6";
    object      T;
}
// * * * * * * * * * * * * * * * * * * * * * * * * * * * * * * * * * * * * * //

dimensions      [0 0 0 1 0 0 0];

internalField   nonuniform List<scalar> 
64
(
0.00579534
0.00579534
0.00579534
0.00579534
0.00585228
0.00585228
0.00585228
0.00585228
1.46796e-05
0.00573798
7.24985e-05
0.00579488
7.20396e-05
0.00573752
1.51385e-05
1.46796e-05
0.00573798
7.24985e-05
0.00579488
7.20396e-05
0.00573752
1.51385e-05
1.46796e-05
7.24985e-05
0.00573798
0.00579488
0.00573752
7.20396e-05
1.51385e-05
1.46796e-05
7.24985e-05
0.00573798
0.00579488
0.00573752
7.20396e-05
1.51385e-05
1.47195e-05
0.00579492
0.00579492
0.000129439
7.20795e-05
0.00573756
7.20795e-05
1.47195e-05
0.00579492
0.00579492
0.000129439
7.20795e-05
0.00573756
7.20795e-05
1.47195e-05
0.00579492
0.000129439
0.00579492
0.00573756
7.20795e-05
7.20795e-05
1.47195e-05
0.00579492
0.000129439
0.00579492
0.00573756
7.20795e-05
7.20795e-05
)
;

boundaryField
{
    walls
    {
        type            fixedGradient;
        gradient        uniform 10;
    }
    inlet
    {
        type            fixedValue;
        value           uniform 1;
    }
    outlet
    {
        type            fixedGradient;
        gradient        uniform 10;
    }
}


// ************************************************************************* //
