/*--------------------------------*- C++ -*----------------------------------*\
| =========                 |                                                 |
| \\      /  F ield         | OpenFOAM: The Open Source CFD Toolbox           |
|  \\    /   O peration     | Version:  2.3.0                                 |
|   \\  /    A nd           | Web:      www.OpenFOAM.org                      |
|    \\/     M anipulation  |                                                 |
\*---------------------------------------------------------------------------*/
FoamFile
{
    version     2.0;
    format      ascii;
    class       volScalarField;
    location    "8.4";
    object      gradTz;
}
// * * * * * * * * * * * * * * * * * * * * * * * * * * * * * * * * * * * * * //

dimensions      [0 -1 0 1 0 0 0];

internalField   nonuniform List<scalar> 
64
(
-0.0394591
-0.0394591
-0.0394591
-0.0394591
5
5
5
5
-2.06674e-08
-0.0394645
-0.0399929
-2.05229e-08
-2.06659e-08
-2.05243e-08
-0.0399982
-2.06674e-08
-0.0394645
-0.0399929
-2.05229e-08
-2.06659e-08
-2.05243e-08
-0.0399982
-2.06674e-08
-0.0399929
-0.0394645
-2.05229e-08
-2.05243e-08
-2.06659e-08
-0.0399982
-2.06674e-08
-0.0399929
-0.0394645
-2.05229e-08
-2.05243e-08
-2.06659e-08
-0.0399982
2.684e-06
2.684e-06
5
5
2.684e-06
2.684e-06
5
2.684e-06
2.684e-06
5
5
2.684e-06
2.684e-06
5
2.684e-06
2.684e-06
5
5
2.684e-06
2.684e-06
5
2.684e-06
2.684e-06
5
5
2.684e-06
2.684e-06
5
)
;

boundaryField
{
    walls
    {
        type            calculated;
        value           nonuniform List<scalar> 
64
(
-0.0394591
-0.0394591
-0.0394591
-0.0394591
5
5
-0.0394591
5
5
-0.0394591
-0.0394591
5
5
-0.0394591
5
5
-2.05229e-08
-2.05243e-08
-0.0394645
-2.05229e-08
-2.06659e-08
-0.0399929
-0.0399929
-2.06659e-08
-2.05229e-08
-0.0394645
-2.05243e-08
-2.05229e-08
5
2.684e-06
2.684e-06
2.684e-06
2.684e-06
5
-0.0394645
-2.05243e-08
-2.05229e-08
5
2.684e-06
2.684e-06
2.684e-06
2.684e-06
5
-0.0399929
-2.06659e-08
-2.05229e-08
-2.05229e-08
-2.06659e-08
-0.0399929
5
2.684e-06
2.684e-06
2.684e-06
2.684e-06
5
-2.05229e-08
-2.05243e-08
-0.0394645
5
2.684e-06
2.684e-06
2.684e-06
2.684e-06
5
)
;
    }
    inlet
    {
        type            calculated;
        value           nonuniform List<scalar> 
16
(
-0.0789181
-0.0789181
-0.0789181
-0.0789181
-0.0799857
-0.0799964
-0.0789289
-0.0789289
-0.0799964
-0.0799857
-0.0799857
-0.0799964
-0.0789289
-0.0789289
-0.0799964
-0.0799857
)
;
    }
    outlet
    {
        type            calculated;
        value           uniform 10;
    }
}


// ************************************************************************* //
