/*--------------------------------*- C++ -*----------------------------------*\
| =========                 |                                                 |
| \\      /  F ield         | OpenFOAM: The Open Source CFD Toolbox           |
|  \\    /   O peration     | Version:  2.3.0                                 |
|   \\  /    A nd           | Web:      www.OpenFOAM.org                      |
|    \\/     M anipulation  |                                                 |
\*---------------------------------------------------------------------------*/
FoamFile
{
    version     2.0;
    format      ascii;
    class       volScalarField;
    location    "4.6";
    object      gradTz;
}
// * * * * * * * * * * * * * * * * * * * * * * * * * * * * * * * * * * * * * //

dimensions      [0 -1 0 1 0 0 0];

internalField   nonuniform List<scalar> 
64
(
-0.0397037
-0.0397037
-0.0397037
-0.0397037
5
5
5
5
-1.09404e-08
-0.0397067
-0.0399963
-1.0897e-08
-1.094e-08
-1.08975e-08
-0.0399992
-1.09404e-08
-0.0397067
-0.0399963
-1.0897e-08
-1.094e-08
-1.08975e-08
-0.0399992
-1.09404e-08
-0.0399963
-0.0397067
-1.0897e-08
-1.08975e-08
-1.094e-08
-0.0399992
-1.09404e-08
-0.0399963
-0.0397067
-1.0897e-08
-1.08975e-08
-1.094e-08
-0.0399992
1.468e-06
1.468e-06
5
5
1.468e-06
1.468e-06
5
1.468e-06
1.468e-06
5
5
1.468e-06
1.468e-06
5
1.468e-06
1.468e-06
5
5
1.468e-06
1.468e-06
5
1.468e-06
1.468e-06
5
5
1.468e-06
1.468e-06
5
)
;

boundaryField
{
    walls
    {
        type            calculated;
        value           nonuniform List<scalar> 
64
(
-0.0397037
-0.0397037
-0.0397037
-0.0397037
5
5
-0.0397037
5
5
-0.0397037
-0.0397037
5
5
-0.0397037
5
5
-1.0897e-08
-1.08975e-08
-0.0397067
-1.0897e-08
-1.094e-08
-0.0399963
-0.0399963
-1.094e-08
-1.0897e-08
-0.0397067
-1.08975e-08
-1.0897e-08
5
1.468e-06
1.468e-06
1.468e-06
1.468e-06
5
-0.0397067
-1.08975e-08
-1.0897e-08
5
1.468e-06
1.468e-06
1.468e-06
1.468e-06
5
-0.0399963
-1.094e-08
-1.0897e-08
-1.0897e-08
-1.094e-08
-0.0399963
5
1.468e-06
1.468e-06
1.468e-06
1.468e-06
5
-1.0897e-08
-1.08975e-08
-0.0397067
5
1.468e-06
1.468e-06
1.468e-06
1.468e-06
5
)
;
    }
    inlet
    {
        type            calculated;
        value           nonuniform List<scalar> 
16
(
-0.0794074
-0.0794074
-0.0794074
-0.0794074
-0.0799926
-0.0799984
-0.0794133
-0.0794133
-0.0799984
-0.0799926
-0.0799926
-0.0799984
-0.0794133
-0.0794133
-0.0799984
-0.0799926
)
;
    }
    outlet
    {
        type            calculated;
        value           uniform 10;
    }
}


// ************************************************************************* //
