/*--------------------------------*- C++ -*----------------------------------*\
| =========                 |                                                 |
| \\      /  F ield         | OpenFOAM: The Open Source CFD Toolbox           |
|  \\    /   O peration     | Version:  2.3.0                                 |
|   \\  /    A nd           | Web:      www.OpenFOAM.org                      |
|    \\/     M anipulation  |                                                 |
\*---------------------------------------------------------------------------*/
FoamFile
{
    version     2.0;
    format      ascii;
    class       volScalarField;
    location    "0.2";
    object      gradTz;
}
// * * * * * * * * * * * * * * * * * * * * * * * * * * * * * * * * * * * * * //

dimensions      [0 -1 0 1 0 0 0];

internalField   nonuniform List<scalar> 
64
(
-0.0399877
-0.0399877
-0.0399877
-0.0399877
5
5
5
5
3.23204e-10
-0.0399878
-0.0399996
3.23277e-10
3.23205e-10
3.23276e-10
-0.0399997
3.23204e-10
-0.0399878
-0.0399996
3.23277e-10
3.23205e-10
3.23276e-10
-0.0399997
3.23204e-10
-0.0399996
-0.0399878
3.23277e-10
3.23276e-10
3.23205e-10
-0.0399997
3.23204e-10
-0.0399996
-0.0399878
3.23277e-10
3.23276e-10
3.23205e-10
-0.0399997
5.99968e-08
5.99968e-08
5
5
5.99968e-08
5.99968e-08
5
5.99968e-08
5.99968e-08
5
5
5.99968e-08
5.99968e-08
5
5.99968e-08
5.99968e-08
5
5
5.99968e-08
5.99968e-08
5
5.99968e-08
5.99968e-08
5
5
5.99968e-08
5.99968e-08
5
)
;

boundaryField
{
    walls
    {
        type            calculated;
        value           nonuniform List<scalar> 
64
(
-0.0399877
-0.0399877
-0.0399877
-0.0399877
5
5
-0.0399877
5
5
-0.0399877
-0.0399877
5
5
-0.0399877
5
5
3.23277e-10
3.23276e-10
-0.0399878
3.23277e-10
3.23205e-10
-0.0399996
-0.0399996
3.23205e-10
3.23277e-10
-0.0399878
3.23276e-10
3.23277e-10
5
5.99968e-08
5.99968e-08
5.99968e-08
5.99968e-08
5
-0.0399878
3.23276e-10
3.23277e-10
5
5.99968e-08
5.99968e-08
5.99968e-08
5.99968e-08
5
-0.0399996
3.23205e-10
3.23277e-10
3.23277e-10
3.23205e-10
-0.0399996
5
5.99968e-08
5.99968e-08
5.99968e-08
5.99968e-08
5
3.23277e-10
3.23276e-10
-0.0399878
5
5.99968e-08
5.99968e-08
5.99968e-08
5.99968e-08
5
)
;
    }
    inlet
    {
        type            calculated;
        value           nonuniform List<scalar> 
16
(
-0.0799754
-0.0799754
-0.0799754
-0.0799754
-0.0799991
-0.0799993
-0.0799757
-0.0799757
-0.0799993
-0.0799991
-0.0799991
-0.0799993
-0.0799757
-0.0799757
-0.0799993
-0.0799991
)
;
    }
    outlet
    {
        type            calculated;
        value           uniform 10;
    }
}


// ************************************************************************* //
