/*--------------------------------*- C++ -*----------------------------------*\
| =========                 |                                                 |
| \\      /  F ield         | OpenFOAM: The Open Source CFD Toolbox           |
|  \\    /   O peration     | Version:  2.3.0                                 |
|   \\  /    A nd           | Web:      www.OpenFOAM.org                      |
|    \\/     M anipulation  |                                                 |
\*---------------------------------------------------------------------------*/
FoamFile
{
    version     2.0;
    format      ascii;
    class       volScalarField;
    location    "0.2";
    object      T;
}
// * * * * * * * * * * * * * * * * * * * * * * * * * * * * * * * * * * * * * //

dimensions      [0 0 0 1 0 0 0];

internalField   nonuniform List<scalar> 
64
(
0.000307066
0.000307066
0.000307066
0.000307066
0.000310042
0.000310042
0.000310042
0.000310042
8.1182e-06
0.000304106
1.11019e-05
0.000307042
1.10782e-05
0.000304082
8.14188e-06
8.1182e-06
0.000304106
1.11019e-05
0.000307042
1.10782e-05
0.000304082
8.14188e-06
8.1182e-06
1.11019e-05
0.000304106
0.000307042
0.000304082
1.10782e-05
8.14188e-06
8.1182e-06
1.11019e-05
0.000304106
0.000307042
0.000304082
1.10782e-05
8.14188e-06
8.15804e-06
0.000307082
0.000307082
1.4078e-05
1.1118e-05
0.000304122
1.1118e-05
8.15804e-06
0.000307082
0.000307082
1.4078e-05
1.1118e-05
0.000304122
1.1118e-05
8.15804e-06
0.000307082
1.4078e-05
0.000307082
0.000304122
1.1118e-05
1.1118e-05
8.15804e-06
0.000307082
1.4078e-05
0.000307082
0.000304122
1.1118e-05
1.1118e-05
)
;

boundaryField
{
    walls
    {
        type            fixedGradient;
        gradient        uniform 10;
    }
    inlet
    {
        type            fixedValue;
        value           uniform 1;
    }
    outlet
    {
        type            fixedGradient;
        gradient        uniform 10;
    }
}


// ************************************************************************* //
