/*--------------------------------*- C++ -*----------------------------------*\
| =========                 |                                                 |
| \\      /  F ield         | OpenFOAM: The Open Source CFD Toolbox           |
|  \\    /   O peration     | Version:  2.3.0                                 |
|   \\  /    A nd           | Web:      www.OpenFOAM.org                      |
|    \\/     M anipulation  |                                                 |
\*---------------------------------------------------------------------------*/
FoamFile
{
    version     2.0;
    format      ascii;
    class       volScalarField;
    location    "0.1";
    object      gradTz;
}
// * * * * * * * * * * * * * * * * * * * * * * * * * * * * * * * * * * * * * //

dimensions      [0 -1 0 1 0 0 0];

internalField   nonuniform List<scalar> 
64
(
-0.0399942
-0.0399942
-0.0399942
-0.0399942
5
5
5
5
5.79202e-10
-0.0399942
-0.0399996
5.79218e-10
5.79202e-10
5.79218e-10
-0.0399997
5.79202e-10
-0.0399942
-0.0399996
5.79218e-10
5.79202e-10
5.79218e-10
-0.0399997
5.79202e-10
-0.0399996
-0.0399942
5.79218e-10
5.79218e-10
5.79202e-10
-0.0399997
5.79202e-10
-0.0399996
-0.0399942
5.79218e-10
5.79218e-10
5.79202e-10
-0.0399997
2.79968e-08
2.79968e-08
5
5
2.79968e-08
2.79968e-08
5
2.79968e-08
2.79968e-08
5
5
2.79968e-08
2.79968e-08
5
2.79968e-08
2.79968e-08
5
5
2.79968e-08
2.79968e-08
5
2.79968e-08
2.79968e-08
5
5
2.79968e-08
2.79968e-08
5
)
;

boundaryField
{
    walls
    {
        type            calculated;
        value           nonuniform List<scalar> 
64
(
-0.0399942
-0.0399942
-0.0399942
-0.0399942
5
5
-0.0399942
5
5
-0.0399942
-0.0399942
5
5
-0.0399942
5
5
5.79218e-10
5.79218e-10
-0.0399942
5.79218e-10
5.79202e-10
-0.0399996
-0.0399996
5.79202e-10
5.79218e-10
-0.0399942
5.79218e-10
5.79218e-10
5
2.79968e-08
2.79968e-08
2.79968e-08
2.79968e-08
5
-0.0399942
5.79218e-10
5.79218e-10
5
2.79968e-08
2.79968e-08
2.79968e-08
2.79968e-08
5
-0.0399996
5.79202e-10
5.79218e-10
5.79218e-10
5.79202e-10
-0.0399996
5
2.79968e-08
2.79968e-08
2.79968e-08
2.79968e-08
5
5.79218e-10
5.79218e-10
-0.0399942
5
2.79968e-08
2.79968e-08
2.79968e-08
2.79968e-08
5
)
;
    }
    inlet
    {
        type            calculated;
        value           nonuniform List<scalar> 
16
(
-0.0799884
-0.0799884
-0.0799884
-0.0799884
-0.0799992
-0.0799994
-0.0799885
-0.0799885
-0.0799994
-0.0799992
-0.0799992
-0.0799994
-0.0799885
-0.0799885
-0.0799994
-0.0799992
)
;
    }
    outlet
    {
        type            calculated;
        value           uniform 10;
    }
}


// ************************************************************************* //
