/*--------------------------------*- C++ -*----------------------------------*\
| =========                 |                                                 |
| \\      /  F ield         | OpenFOAM: The Open Source CFD Toolbox           |
|  \\    /   O peration     | Version:  2.3.0                                 |
|   \\  /    A nd           | Web:      www.OpenFOAM.org                      |
|    \\/     M anipulation  |                                                 |
\*---------------------------------------------------------------------------*/
FoamFile
{
    version     2.0;
    format      ascii;
    class       volScalarField;
    location    "0.1";
    object      gradTx;
}
// * * * * * * * * * * * * * * * * * * * * * * * * * * * * * * * * * * * * * //

dimensions      [0 -1 0 1 0 0 0];

internalField   nonuniform List<scalar> 5(-3.01094e-21 -2.99893e-25 1.45446e-29 -3.66754e-35 6.21325e-39);

boundaryField
{
    walls
    {
        type            calculated;
        value           nonuniform List<scalar> 
20
(
-3.01094e-21
-2.99893e-25
1.45446e-29
-3.66754e-35
6.21325e-39
0
0
0
0
0
0
0
0
0
0
-3.01094e-21
-2.99893e-25
1.45446e-29
-3.66754e-35
6.21325e-39
)
;
    }
    inlet
    {
        type            calculated;
        value           uniform -3.01094e-21;
    }
    outlet
    {
        type            calculated;
        value           uniform 6.21325e-39;
    }
}


// ************************************************************************* //
