/*--------------------------------*- C++ -*----------------------------------*\
| =========                 |                                                 |
| \\      /  F ield         | OpenFOAM: The Open Source CFD Toolbox           |
|  \\    /   O peration     | Version:  2.3.0                                 |
|   \\  /    A nd           | Web:      www.OpenFOAM.org                      |
|    \\/     M anipulation  |                                                 |
\*---------------------------------------------------------------------------*/
FoamFile
{
    version     2.0;
    format      ascii;
    class       volScalarField;
    location    "0.1";
    object      T;
}
// * * * * * * * * * * * * * * * * * * * * * * * * * * * * * * * * * * * * * //

dimensions      [0 0 0 1 0 0 0];

internalField   nonuniform List<scalar> 
64
(
0.000145467
0.000145467
0.000145467
0.000145467
0.000146856
0.000146856
0.000146856
0.000146856
8.10412e-06
0.000144107
9.475e-06
0.000145456
9.46412e-06
0.000144096
8.115e-06
8.10412e-06
0.000144107
9.475e-06
0.000145456
9.46412e-06
0.000144096
8.115e-06
8.10412e-06
9.475e-06
0.000144107
0.000145456
0.000144096
9.46412e-06
8.115e-06
8.10412e-06
9.475e-06
0.000144107
0.000145456
0.000144096
9.46412e-06
8.115e-06
8.14396e-06
0.000145496
0.000145496
1.0864e-05
9.50396e-06
0.000144136
9.50396e-06
8.14396e-06
0.000145496
0.000145496
1.0864e-05
9.50396e-06
0.000144136
9.50396e-06
8.14396e-06
0.000145496
1.0864e-05
0.000145496
0.000144136
9.50396e-06
9.50396e-06
8.14396e-06
0.000145496
1.0864e-05
0.000145496
0.000144136
9.50396e-06
9.50396e-06
)
;

boundaryField
{
    walls
    {
        type            fixedGradient;
        gradient        uniform 10;
    }
    inlet
    {
        type            fixedValue;
        value           uniform 1;
    }
    outlet
    {
        type            fixedGradient;
        gradient        uniform 10;
    }
}


// ************************************************************************* //
