/*--------------------------------*- C++ -*----------------------------------*\
| =========                 |                                                 |
| \\      /  F ield         | OpenFOAM: The Open Source CFD Toolbox           |
|  \\    /   O peration     | Version:  2.3.0                                 |
|   \\  /    A nd           | Web:      www.OpenFOAM.org                      |
|    \\/     M anipulation  |                                                 |
\*---------------------------------------------------------------------------*/
FoamFile
{
    version     2.0;
    format      ascii;
    class       volScalarField;
    location    "1.2";
    object      gradTz;
}
// * * * * * * * * * * * * * * * * * * * * * * * * * * * * * * * * * * * * * //

dimensions      [0 -1 0 1 0 0 0];

internalField   nonuniform List<scalar> 
64
(
-0.0399231
-0.0399231
-0.0399231
-0.0399231
5
5
5
5
-2.23676e-09
-0.0399239
-0.0399989
-2.23385e-09
-2.23673e-09
-2.23387e-09
-0.0399996
-2.23676e-09
-0.0399239
-0.0399989
-2.23385e-09
-2.23673e-09
-2.23387e-09
-0.0399996
-2.23676e-09
-0.0399989
-0.0399239
-2.23385e-09
-2.23387e-09
-2.23673e-09
-0.0399996
-2.23676e-09
-0.0399989
-0.0399239
-2.23385e-09
-2.23387e-09
-2.23673e-09
-0.0399996
3.79997e-07
3.79997e-07
5
5
3.79997e-07
3.79997e-07
5
3.79997e-07
3.79997e-07
5
5
3.79997e-07
3.79997e-07
5
3.79997e-07
3.79997e-07
5
5
3.79997e-07
3.79997e-07
5
3.79997e-07
3.79997e-07
5
5
3.79997e-07
3.79997e-07
5
)
;

boundaryField
{
    walls
    {
        type            calculated;
        value           nonuniform List<scalar> 
64
(
-0.0399231
-0.0399231
-0.0399231
-0.0399231
5
5
-0.0399231
5
5
-0.0399231
-0.0399231
5
5
-0.0399231
5
5
-2.23385e-09
-2.23387e-09
-0.0399239
-2.23385e-09
-2.23673e-09
-0.0399989
-0.0399989
-2.23673e-09
-2.23385e-09
-0.0399239
-2.23387e-09
-2.23385e-09
5
3.79997e-07
3.79997e-07
3.79997e-07
3.79997e-07
5
-0.0399239
-2.23387e-09
-2.23385e-09
5
3.79997e-07
3.79997e-07
3.79997e-07
3.79997e-07
5
-0.0399989
-2.23673e-09
-2.23385e-09
-2.23385e-09
-2.23673e-09
-0.0399989
5
3.79997e-07
3.79997e-07
3.79997e-07
3.79997e-07
5
-2.23385e-09
-2.23387e-09
-0.0399239
5
3.79997e-07
3.79997e-07
3.79997e-07
3.79997e-07
5
)
;
    }
    inlet
    {
        type            calculated;
        value           nonuniform List<scalar> 
16
(
-0.0798462
-0.0798462
-0.0798462
-0.0798462
-0.0799978
-0.0799993
-0.0798477
-0.0798477
-0.0799993
-0.0799978
-0.0799978
-0.0799993
-0.0798477
-0.0798477
-0.0799993
-0.0799978
)
;
    }
    outlet
    {
        type            calculated;
        value           uniform 10;
    }
}


// ************************************************************************* //
