/*--------------------------------*- C++ -*----------------------------------*\
| =========                 |                                                 |
| \\      /  F ield         | OpenFOAM: The Open Source CFD Toolbox           |
|  \\    /   O peration     | Version:  2.3.0                                 |
|   \\  /    A nd           | Web:      www.OpenFOAM.org                      |
|    \\/     M anipulation  |                                                 |
\*---------------------------------------------------------------------------*/
FoamFile
{
    version     2.0;
    format      ascii;
    class       volScalarField;
    location    "3.5";
    object      gradTz;
}
// * * * * * * * * * * * * * * * * * * * * * * * * * * * * * * * * * * * * * //

dimensions      [0 -1 0 1 0 0 0];

internalField   nonuniform List<scalar> 
64
(
-0.0397746
-0.0397746
-0.0397746
-0.0397746
5
5
5
5
-8.12456e-09
-0.0397769
-0.0399972
-8.09948e-09
-8.12431e-09
-8.09973e-09
-0.0399994
-8.12456e-09
-0.0397769
-0.0399972
-8.09948e-09
-8.12431e-09
-8.09973e-09
-0.0399994
-8.12456e-09
-0.0399972
-0.0397769
-8.09948e-09
-8.09973e-09
-8.12431e-09
-0.0399994
-8.12456e-09
-0.0399972
-0.0397769
-8.09948e-09
-8.09973e-09
-8.12431e-09
-0.0399994
1.116e-06
1.116e-06
5
5
1.116e-06
1.116e-06
5
1.116e-06
1.116e-06
5
5
1.116e-06
1.116e-06
5
1.116e-06
1.116e-06
5
5
1.116e-06
1.116e-06
5
1.116e-06
1.116e-06
5
5
1.116e-06
1.116e-06
5
)
;

boundaryField
{
    walls
    {
        type            calculated;
        value           nonuniform List<scalar> 
64
(
-0.0397746
-0.0397746
-0.0397746
-0.0397746
5
5
-0.0397746
5
5
-0.0397746
-0.0397746
5
5
-0.0397746
5
5
-8.09948e-09
-8.09973e-09
-0.0397769
-8.09948e-09
-8.12431e-09
-0.0399972
-0.0399972
-8.12431e-09
-8.09948e-09
-0.0397769
-8.09973e-09
-8.09948e-09
5
1.116e-06
1.116e-06
1.116e-06
1.116e-06
5
-0.0397769
-8.09973e-09
-8.09948e-09
5
1.116e-06
1.116e-06
1.116e-06
1.116e-06
5
-0.0399972
-8.12431e-09
-8.09948e-09
-8.09948e-09
-8.12431e-09
-0.0399972
5
1.116e-06
1.116e-06
1.116e-06
1.116e-06
5
-8.09948e-09
-8.09973e-09
-0.0397769
5
1.116e-06
1.116e-06
1.116e-06
1.116e-06
5
)
;
    }
    inlet
    {
        type            calculated;
        value           nonuniform List<scalar> 
16
(
-0.0795493
-0.0795493
-0.0795493
-0.0795493
-0.0799944
-0.0799988
-0.0795537
-0.0795537
-0.0799988
-0.0799944
-0.0799944
-0.0799988
-0.0795537
-0.0795537
-0.0799988
-0.0799944
)
;
    }
    outlet
    {
        type            calculated;
        value           uniform 10;
    }
}


// ************************************************************************* //
