/*--------------------------------*- C++ -*----------------------------------*\
| =========                 |                                                 |
| \\      /  F ield         | OpenFOAM: The Open Source CFD Toolbox           |
|  \\    /   O peration     | Version:  2.3.0                                 |
|   \\  /    A nd           | Web:      www.OpenFOAM.org                      |
|    \\/     M anipulation  |                                                 |
\*---------------------------------------------------------------------------*/
FoamFile
{
    version     2.0;
    format      ascii;
    class       volScalarField;
    location    "3.5";
    object      T;
}
// * * * * * * * * * * * * * * * * * * * * * * * * * * * * * * * * * * * * * //

dimensions      [0 0 0 1 0 0 0];

internalField   nonuniform List<scalar> 
64
(
0.00563409
0.00563409
0.00563409
0.00563409
0.00568944
0.00568944
0.00568944
0.00568944
1.43182e-05
0.00557833
7.05243e-05
0.00563364
7.00782e-05
0.00557788
1.47643e-05
1.43182e-05
0.00557833
7.05243e-05
0.00563364
7.00782e-05
0.00557788
1.47643e-05
1.43182e-05
7.05243e-05
0.00557833
0.00563364
0.00557788
7.00782e-05
1.47643e-05
1.43182e-05
7.05243e-05
0.00557833
0.00563364
0.00557788
7.00782e-05
1.47643e-05
1.43581e-05
0.00563368
0.00563368
0.000125878
7.0118e-05
0.00557792
7.0118e-05
1.43581e-05
0.00563368
0.00563368
0.000125878
7.0118e-05
0.00557792
7.0118e-05
1.43581e-05
0.00563368
0.000125878
0.00563368
0.00557792
7.0118e-05
7.0118e-05
1.43581e-05
0.00563368
0.000125878
0.00563368
0.00557792
7.0118e-05
7.0118e-05
)
;

boundaryField
{
    walls
    {
        type            fixedGradient;
        gradient        uniform 10;
    }
    inlet
    {
        type            fixedValue;
        value           uniform 1;
    }
    outlet
    {
        type            fixedGradient;
        gradient        uniform 10;
    }
}


// ************************************************************************* //
