/*--------------------------------*- C++ -*----------------------------------*\
| =========                 |                                                 |
| \\      /  F ield         | OpenFOAM: The Open Source CFD Toolbox           |
|  \\    /   O peration     | Version:  2.3.0                                 |
|   \\  /    A nd           | Web:      www.OpenFOAM.org                      |
|    \\/     M anipulation  |                                                 |
\*---------------------------------------------------------------------------*/
FoamFile
{
    version     2.0;
    format      ascii;
    class       volScalarField;
    location    "6.4";
    object      gradTz;
}
// * * * * * * * * * * * * * * * * * * * * * * * * * * * * * * * * * * * * * //

dimensions      [0 -1 0 1 0 0 0];

internalField   nonuniform List<scalar> 
64
(
-0.0395878
-0.0395878
-0.0395878
-0.0395878
5
5
5
5
-1.5548e-08
-0.0395919
-0.0399947
-1.54641e-08
-1.55472e-08
-1.54649e-08
-0.0399988
-1.5548e-08
-0.0395919
-0.0399947
-1.54641e-08
-1.55472e-08
-1.54649e-08
-0.0399988
-1.5548e-08
-0.0399947
-0.0395919
-1.54641e-08
-1.54649e-08
-1.55472e-08
-0.0399988
-1.5548e-08
-0.0399947
-0.0395919
-1.54641e-08
-1.54649e-08
-1.55472e-08
-0.0399988
2.044e-06
2.044e-06
5
5
2.044e-06
2.044e-06
5
2.044e-06
2.044e-06
5
5
2.044e-06
2.044e-06
5
2.044e-06
2.044e-06
5
5
2.044e-06
2.044e-06
5
2.044e-06
2.044e-06
5
5
2.044e-06
2.044e-06
5
)
;

boundaryField
{
    walls
    {
        type            calculated;
        value           nonuniform List<scalar> 
64
(
-0.0395878
-0.0395878
-0.0395878
-0.0395878
5
5
-0.0395878
5
5
-0.0395878
-0.0395878
5
5
-0.0395878
5
5
-1.54641e-08
-1.54649e-08
-0.0395919
-1.54641e-08
-1.55472e-08
-0.0399947
-0.0399947
-1.55472e-08
-1.54641e-08
-0.0395919
-1.54649e-08
-1.54641e-08
5
2.044e-06
2.044e-06
2.044e-06
2.044e-06
5
-0.0395919
-1.54649e-08
-1.54641e-08
5
2.044e-06
2.044e-06
2.044e-06
2.044e-06
5
-0.0399947
-1.55472e-08
-1.54641e-08
-1.54641e-08
-1.55472e-08
-0.0399947
5
2.044e-06
2.044e-06
2.044e-06
2.044e-06
5
-1.54641e-08
-1.54649e-08
-0.0395919
5
2.044e-06
2.044e-06
2.044e-06
2.044e-06
5
)
;
    }
    inlet
    {
        type            calculated;
        value           nonuniform List<scalar> 
16
(
-0.0791755
-0.0791755
-0.0791755
-0.0791755
-0.0799894
-0.0799976
-0.0791837
-0.0791837
-0.0799976
-0.0799894
-0.0799894
-0.0799976
-0.0791837
-0.0791837
-0.0799976
-0.0799894
)
;
    }
    outlet
    {
        type            calculated;
        value           uniform 10;
    }
}


// ************************************************************************* //
