/*--------------------------------*- C++ -*----------------------------------*\
| =========                 |                                                 |
| \\      /  F ield         | OpenFOAM: The Open Source CFD Toolbox           |
|  \\    /   O peration     | Version:  2.3.0                                 |
|   \\  /    A nd           | Web:      www.OpenFOAM.org                      |
|    \\/     M anipulation  |                                                 |
\*---------------------------------------------------------------------------*/
FoamFile
{
    version     2.0;
    format      ascii;
    class       volScalarField;
    location    "9.7";
    object      gradTz;
}
// * * * * * * * * * * * * * * * * * * * * * * * * * * * * * * * * * * * * * //

dimensions      [0 -1 0 1 0 0 0];

internalField   nonuniform List<scalar> 
64
(
-0.0393755
-0.0393755
-0.0393755
-0.0393755
5
5
5
5
-2.39948e-08
-0.0393817
-0.0399915
-2.38023e-08
-2.39929e-08
-2.38042e-08
-0.0399977
-2.39948e-08
-0.0393817
-0.0399915
-2.38023e-08
-2.39929e-08
-2.38042e-08
-0.0399977
-2.39948e-08
-0.0399915
-0.0393817
-2.38023e-08
-2.38042e-08
-2.39929e-08
-0.0399977
-2.39948e-08
-0.0399915
-0.0393817
-2.38023e-08
-2.38042e-08
-2.39929e-08
-0.0399977
3.1e-06
3.1e-06
5
5
3.1e-06
3.1e-06
5
3.1e-06
3.1e-06
5
5
3.1e-06
3.1e-06
5
3.1e-06
3.1e-06
5
5
3.1e-06
3.1e-06
5
3.1e-06
3.1e-06
5
5
3.1e-06
3.1e-06
5
)
;

boundaryField
{
    walls
    {
        type            calculated;
        value           nonuniform List<scalar> 
64
(
-0.0393755
-0.0393755
-0.0393755
-0.0393755
5
5
-0.0393755
5
5
-0.0393755
-0.0393755
5
5
-0.0393755
5
5
-2.38023e-08
-2.38042e-08
-0.0393817
-2.38023e-08
-2.39929e-08
-0.0399915
-0.0399915
-2.39929e-08
-2.38023e-08
-0.0393817
-2.38042e-08
-2.38023e-08
5
3.1e-06
3.1e-06
3.1e-06
3.1e-06
5
-0.0393817
-2.38042e-08
-2.38023e-08
5
3.1e-06
3.1e-06
3.1e-06
3.1e-06
5
-0.0399915
-2.39929e-08
-2.38023e-08
-2.38023e-08
-2.39929e-08
-0.0399915
5
3.1e-06
3.1e-06
3.1e-06
3.1e-06
5
-2.38023e-08
-2.38042e-08
-0.0393817
5
3.1e-06
3.1e-06
3.1e-06
3.1e-06
5
)
;
    }
    inlet
    {
        type            calculated;
        value           nonuniform List<scalar> 
16
(
-0.078751
-0.078751
-0.078751
-0.078751
-0.079983
-0.0799954
-0.0787634
-0.0787634
-0.0799954
-0.079983
-0.079983
-0.0799954
-0.0787634
-0.0787634
-0.0799954
-0.079983
)
;
    }
    outlet
    {
        type            calculated;
        value           uniform 10;
    }
}


// ************************************************************************* //
