/*--------------------------------*- C++ -*----------------------------------*\
| =========                 |                                                 |
| \\      /  F ield         | OpenFOAM: The Open Source CFD Toolbox           |
|  \\    /   O peration     | Version:  2.3.0                                 |
|   \\  /    A nd           | Web:      www.OpenFOAM.org                      |
|    \\/     M anipulation  |                                                 |
\*---------------------------------------------------------------------------*/
FoamFile
{
    version     2.0;
    format      ascii;
    class       volScalarField;
    location    "9.7";
    object      T;
}
// * * * * * * * * * * * * * * * * * * * * * * * * * * * * * * * * * * * * * //

dimensions      [0 0 0 1 0 0 0];

internalField   nonuniform List<scalar> 
64
(
0.0156124
0.0156124
0.0156124
0.0156124
0.0157662
0.0157662
0.0157662
0.0157662
5.59521e-05
0.0154575
0.000212152
0.0156112
0.000210912
0.0154562
5.71917e-05
5.59521e-05
0.0154575
0.000212152
0.0156112
0.000210912
0.0154562
5.71917e-05
5.59521e-05
0.000212152
0.0154575
0.0156112
0.0154562
0.000210912
5.71917e-05
5.59521e-05
0.000212152
0.0154575
0.0156112
0.0154562
0.000210912
5.71917e-05
5.5992e-05
0.0156112
0.0156112
0.000365912
0.000210952
0.0154563
0.000210952
5.5992e-05
0.0156112
0.0156112
0.000365912
0.000210952
0.0154563
0.000210952
5.5992e-05
0.0156112
0.000365912
0.0156112
0.0154563
0.000210952
0.000210952
5.5992e-05
0.0156112
0.000365912
0.0156112
0.0154563
0.000210952
0.000210952
)
;

boundaryField
{
    walls
    {
        type            fixedGradient;
        gradient        uniform 10;
    }
    inlet
    {
        type            fixedValue;
        value           uniform 1;
    }
    outlet
    {
        type            fixedGradient;
        gradient        uniform 10;
    }
}


// ************************************************************************* //
