/*--------------------------------*- C++ -*----------------------------------*\
| =========                 |                                                 |
| \\      /  F ield         | OpenFOAM: The Open Source CFD Toolbox           |
|  \\    /   O peration     | Version:  2.3.0                                 |
|   \\  /    A nd           | Web:      www.OpenFOAM.org                      |
|    \\/     M anipulation  |                                                 |
\*---------------------------------------------------------------------------*/
FoamFile
{
    version     2.0;
    format      ascii;
    class       volScalarField;
    location    "8.6";
    object      gradTz;
}
// * * * * * * * * * * * * * * * * * * * * * * * * * * * * * * * * * * * * * //

dimensions      [0 -1 0 1 0 0 0];

internalField   nonuniform List<scalar> 
64
(
-0.0394462
-0.0394462
-0.0394462
-0.0394462
5
5
5
5
-2.11793e-08
-0.0394517
-0.0399927
-2.10279e-08
-2.11778e-08
-2.10294e-08
-0.0399981
-2.11793e-08
-0.0394517
-0.0399927
-2.10279e-08
-2.11778e-08
-2.10294e-08
-0.0399981
-2.11793e-08
-0.0399927
-0.0394517
-2.10279e-08
-2.10294e-08
-2.11778e-08
-0.0399981
-2.11793e-08
-0.0399927
-0.0394517
-2.10279e-08
-2.10294e-08
-2.11778e-08
-0.0399981
2.748e-06
2.748e-06
5
5
2.748e-06
2.748e-06
5
2.748e-06
2.748e-06
5
5
2.748e-06
2.748e-06
5
2.748e-06
2.748e-06
5
5
2.748e-06
2.748e-06
5
2.748e-06
2.748e-06
5
5
2.748e-06
2.748e-06
5
)
;

boundaryField
{
    walls
    {
        type            calculated;
        value           nonuniform List<scalar> 
64
(
-0.0394462
-0.0394462
-0.0394462
-0.0394462
5
5
-0.0394462
5
5
-0.0394462
-0.0394462
5
5
-0.0394462
5
5
-2.10279e-08
-2.10294e-08
-0.0394517
-2.10279e-08
-2.11778e-08
-0.0399927
-0.0399927
-2.11778e-08
-2.10279e-08
-0.0394517
-2.10294e-08
-2.10279e-08
5
2.748e-06
2.748e-06
2.748e-06
2.748e-06
5
-0.0394517
-2.10294e-08
-2.10279e-08
5
2.748e-06
2.748e-06
2.748e-06
2.748e-06
5
-0.0399927
-2.11778e-08
-2.10279e-08
-2.10279e-08
-2.11778e-08
-0.0399927
5
2.748e-06
2.748e-06
2.748e-06
2.748e-06
5
-2.10279e-08
-2.10294e-08
-0.0394517
5
2.748e-06
2.748e-06
2.748e-06
2.748e-06
5
)
;
    }
    inlet
    {
        type            calculated;
        value           nonuniform List<scalar> 
16
(
-0.0788924
-0.0788924
-0.0788924
-0.0788924
-0.0799853
-0.0799963
-0.0789034
-0.0789034
-0.0799963
-0.0799853
-0.0799853
-0.0799963
-0.0789034
-0.0789034
-0.0799963
-0.0799853
)
;
    }
    outlet
    {
        type            calculated;
        value           uniform 10;
    }
}


// ************************************************************************* //
