/*--------------------------------*- C++ -*----------------------------------*\
| =========                 |                                                 |
| \\      /  F ield         | OpenFOAM: The Open Source CFD Toolbox           |
|  \\    /   O peration     | Version:  2.3.0                                 |
|   \\  /    A nd           | Web:      www.OpenFOAM.org                      |
|    \\/     M anipulation  |                                                 |
\*---------------------------------------------------------------------------*/
FoamFile
{
    version     2.0;
    format      ascii;
    class       volScalarField;
    location    "8.6";
    object      T;
}
// * * * * * * * * * * * * * * * * * * * * * * * * * * * * * * * * * * * * * //

dimensions      [0 0 0 1 0 0 0];

internalField   nonuniform List<scalar> 
64
(
0.0138449
0.0138449
0.0138449
0.0138449
0.0139812
0.0139812
0.0139812
0.0139812
4.57197e-05
0.0137076
0.000184178
0.0138438
0.00018308
0.0137065
4.68185e-05
4.57197e-05
0.0137076
0.000184178
0.0138438
0.00018308
0.0137065
4.68185e-05
4.57197e-05
0.000184178
0.0137076
0.0138438
0.0137065
0.00018308
4.68185e-05
4.57197e-05
0.000184178
0.0137076
0.0138438
0.0137065
0.00018308
4.68185e-05
4.57595e-05
0.0138439
0.0138439
0.000320479
0.000183119
0.0137065
0.000183119
4.57595e-05
0.0138439
0.0138439
0.000320479
0.000183119
0.0137065
0.000183119
4.57595e-05
0.0138439
0.000320479
0.0138439
0.0137065
0.000183119
0.000183119
4.57595e-05
0.0138439
0.000320479
0.0138439
0.0137065
0.000183119
0.000183119
)
;

boundaryField
{
    walls
    {
        type            fixedGradient;
        gradient        uniform 10;
    }
    inlet
    {
        type            fixedValue;
        value           uniform 1;
    }
    outlet
    {
        type            fixedGradient;
        gradient        uniform 10;
    }
}


// ************************************************************************* //
