/*--------------------------------*- C++ -*----------------------------------*\
| =========                 |                                                 |
| \\      /  F ield         | OpenFOAM: The Open Source CFD Toolbox           |
|  \\    /   O peration     | Version:  2.3.0                                 |
|   \\  /    A nd           | Web:      www.OpenFOAM.org                      |
|    \\/     M anipulation  |                                                 |
\*---------------------------------------------------------------------------*/
FoamFile
{
    version     2.0;
    format      ascii;
    class       volScalarField;
    location    "0.5";
    object      gradTz;
}
// * * * * * * * * * * * * * * * * * * * * * * * * * * * * * * * * * * * * * //

dimensions      [0 -1 0 1 0 0 0];

internalField   nonuniform List<scalar> 
64
(
-0.0399683
-0.0399683
-0.0399683
-0.0399683
5
5
5
5
-4.44787e-10
-0.0399686
-0.0399994
-4.44296e-10
-4.44782e-10
-4.44301e-10
-0.0399997
-4.44787e-10
-0.0399686
-0.0399994
-4.44296e-10
-4.44782e-10
-4.44301e-10
-0.0399997
-4.44788e-10
-0.0399994
-0.0399686
-4.44296e-10
-4.44301e-10
-4.44782e-10
-0.0399997
-4.44788e-10
-0.0399994
-0.0399686
-4.44296e-10
-4.44301e-10
-4.44782e-10
-0.0399997
1.55997e-07
1.55997e-07
5
5
1.55997e-07
1.55997e-07
5
1.55997e-07
1.55997e-07
5
5
1.55997e-07
1.55997e-07
5
1.55997e-07
1.55997e-07
5
5
1.55997e-07
1.55997e-07
5
1.55997e-07
1.55997e-07
5
5
1.55997e-07
1.55997e-07
5
)
;

boundaryField
{
    walls
    {
        type            calculated;
        value           nonuniform List<scalar> 
64
(
-0.0399683
-0.0399683
-0.0399683
-0.0399683
5
5
-0.0399683
5
5
-0.0399683
-0.0399683
5
5
-0.0399683
5
5
-4.44296e-10
-4.44301e-10
-0.0399686
-4.44296e-10
-4.44782e-10
-0.0399994
-0.0399994
-4.44782e-10
-4.44296e-10
-0.0399686
-4.44301e-10
-4.44296e-10
5
1.55997e-07
1.55997e-07
1.55997e-07
1.55997e-07
5
-0.0399686
-4.44301e-10
-4.44296e-10
5
1.55997e-07
1.55997e-07
1.55997e-07
1.55997e-07
5
-0.0399994
-4.44782e-10
-4.44296e-10
-4.44296e-10
-4.44782e-10
-0.0399994
5
1.55997e-07
1.55997e-07
1.55997e-07
1.55997e-07
5
-4.44296e-10
-4.44301e-10
-0.0399686
5
1.55997e-07
1.55997e-07
1.55997e-07
1.55997e-07
5
)
;
    }
    inlet
    {
        type            calculated;
        value           nonuniform List<scalar> 
16
(
-0.0799367
-0.0799367
-0.0799367
-0.0799367
-0.0799987
-0.0799993
-0.0799373
-0.0799373
-0.0799993
-0.0799987
-0.0799987
-0.0799993
-0.0799373
-0.0799373
-0.0799993
-0.0799987
)
;
    }
    outlet
    {
        type            calculated;
        value           uniform 10;
    }
}


// ************************************************************************* //
