/*--------------------------------*- C++ -*----------------------------------*\
| =========                 |                                                 |
| \\      /  F ield         | OpenFOAM: The Open Source CFD Toolbox           |
|  \\    /   O peration     | Version:  2.3.0                                 |
|   \\  /    A nd           | Web:      www.OpenFOAM.org                      |
|    \\/     M anipulation  |                                                 |
\*---------------------------------------------------------------------------*/
FoamFile
{
    version     2.0;
    format      ascii;
    class       volScalarField;
    location    "4.8";
    object      gradTz;
}
// * * * * * * * * * * * * * * * * * * * * * * * * * * * * * * * * * * * * * //

dimensions      [0 -1 0 1 0 0 0];

internalField   nonuniform List<scalar> 
64
(
-0.0396908
-0.0396908
-0.0396908
-0.0396908
5
5
5
5
-1.14524e-08
-0.0396939
-0.0399961
-1.14051e-08
-1.14519e-08
-1.14056e-08
-0.0399992
-1.14524e-08
-0.0396939
-0.0399961
-1.14051e-08
-1.14519e-08
-1.14056e-08
-0.0399992
-1.14524e-08
-0.0399961
-0.0396939
-1.14051e-08
-1.14056e-08
-1.14519e-08
-0.0399992
-1.14524e-08
-0.0399961
-0.0396939
-1.14051e-08
-1.14056e-08
-1.14519e-08
-0.0399992
1.532e-06
1.532e-06
5
5
1.532e-06
1.532e-06
5
1.532e-06
1.532e-06
5
5
1.532e-06
1.532e-06
5
1.532e-06
1.532e-06
5
5
1.532e-06
1.532e-06
5
1.532e-06
1.532e-06
5
5
1.532e-06
1.532e-06
5
)
;

boundaryField
{
    walls
    {
        type            calculated;
        value           nonuniform List<scalar> 
64
(
-0.0396908
-0.0396908
-0.0396908
-0.0396908
5
5
-0.0396908
5
5
-0.0396908
-0.0396908
5
5
-0.0396908
5
5
-1.14051e-08
-1.14056e-08
-0.0396939
-1.14051e-08
-1.14519e-08
-0.0399961
-0.0399961
-1.14519e-08
-1.14051e-08
-0.0396939
-1.14056e-08
-1.14051e-08
5
1.532e-06
1.532e-06
1.532e-06
1.532e-06
5
-0.0396939
-1.14056e-08
-1.14051e-08
5
1.532e-06
1.532e-06
1.532e-06
1.532e-06
5
-0.0399961
-1.14519e-08
-1.14051e-08
-1.14051e-08
-1.14519e-08
-0.0399961
5
1.532e-06
1.532e-06
1.532e-06
1.532e-06
5
-1.14051e-08
-1.14056e-08
-0.0396939
5
1.532e-06
1.532e-06
1.532e-06
1.532e-06
5
)
;
    }
    inlet
    {
        type            calculated;
        value           nonuniform List<scalar> 
16
(
-0.0793816
-0.0793816
-0.0793816
-0.0793816
-0.0799922
-0.0799984
-0.0793878
-0.0793878
-0.0799984
-0.0799922
-0.0799922
-0.0799984
-0.0793878
-0.0793878
-0.0799984
-0.0799922
)
;
    }
    outlet
    {
        type            calculated;
        value           uniform 10;
    }
}


// ************************************************************************* //
