/*--------------------------------*- C++ -*----------------------------------*\
| =========                 |                                                 |
| \\      /  F ield         | OpenFOAM: The Open Source CFD Toolbox           |
|  \\    /   O peration     | Version:  2.3.0                                 |
|   \\  /    A nd           | Web:      www.OpenFOAM.org                      |
|    \\/     M anipulation  |                                                 |
\*---------------------------------------------------------------------------*/
FoamFile
{
    version     2.0;
    format      ascii;
    class       volScalarField;
    location    "1.8";
    object      gradTz;
}
// * * * * * * * * * * * * * * * * * * * * * * * * * * * * * * * * * * * * * //

dimensions      [0 -1 0 1 0 0 0];

internalField   nonuniform List<scalar> 
64
(
-0.0398844
-0.0398844
-0.0398844
-0.0398844
5
5
5
5
-3.77272e-09
-0.0398855
-0.0399985
-3.76613e-09
-3.77266e-09
-3.76619e-09
-0.0399996
-3.77272e-09
-0.0398855
-0.0399985
-3.76613e-09
-3.77266e-09
-3.76619e-09
-0.0399996
-3.77273e-09
-0.0399985
-0.0398855
-3.76613e-09
-3.76619e-09
-3.77266e-09
-0.0399996
-3.77273e-09
-0.0399985
-0.0398855
-3.76613e-09
-3.76619e-09
-3.77266e-09
-0.0399996
5.71997e-07
5.71997e-07
5
5
5.71997e-07
5.71997e-07
5
5.71997e-07
5.71997e-07
5
5
5.71997e-07
5.71997e-07
5
5.71997e-07
5.71997e-07
5
5
5.71997e-07
5.71997e-07
5
5.71997e-07
5.71997e-07
5
5
5.71997e-07
5.71997e-07
5
)
;

boundaryField
{
    walls
    {
        type            calculated;
        value           nonuniform List<scalar> 
64
(
-0.0398844
-0.0398844
-0.0398844
-0.0398844
5
5
-0.0398844
5
5
-0.0398844
-0.0398844
5
5
-0.0398844
5
5
-3.76613e-09
-3.76619e-09
-0.0398855
-3.76613e-09
-3.77266e-09
-0.0399985
-0.0399985
-3.77266e-09
-3.76613e-09
-0.0398855
-3.76619e-09
-3.76613e-09
5
5.71997e-07
5.71997e-07
5.71997e-07
5.71997e-07
5
-0.0398855
-3.76619e-09
-3.76613e-09
5
5.71997e-07
5.71997e-07
5.71997e-07
5.71997e-07
5
-0.0399985
-3.77266e-09
-3.76613e-09
-3.76613e-09
-3.77266e-09
-0.0399985
5
5.71997e-07
5.71997e-07
5.71997e-07
5.71997e-07
5
-3.76613e-09
-3.76619e-09
-0.0398855
5
5.71997e-07
5.71997e-07
5.71997e-07
5.71997e-07
5
)
;
    }
    inlet
    {
        type            calculated;
        value           nonuniform List<scalar> 
16
(
-0.0797687
-0.0797687
-0.0797687
-0.0797687
-0.0799969
-0.0799992
-0.079771
-0.079771
-0.0799992
-0.0799969
-0.0799969
-0.0799992
-0.079771
-0.079771
-0.0799992
-0.0799969
)
;
    }
    outlet
    {
        type            calculated;
        value           uniform 10;
    }
}


// ************************************************************************* //
