/*--------------------------------*- C++ -*----------------------------------*\
| =========                 |                                                 |
| \\      /  F ield         | OpenFOAM: The Open Source CFD Toolbox           |
|  \\    /   O peration     | Version:  2.3.0                                 |
|   \\  /    A nd           | Web:      www.OpenFOAM.org                      |
|    \\/     M anipulation  |                                                 |
\*---------------------------------------------------------------------------*/
FoamFile
{
    version     2.0;
    format      ascii;
    class       volScalarField;
    location    "1.8";
    object      T;
}
// * * * * * * * * * * * * * * * * * * * * * * * * * * * * * * * * * * * * * //

dimensions      [0 0 0 1 0 0 0];

internalField   nonuniform List<scalar> 
64
(
0.00289125
0.00289125
0.00289125
0.00289125
0.00291963
0.00291963
0.00291963
0.00291963
9.73487e-06
0.00286269
3.85233e-05
0.00289103
3.82949e-05
0.00286247
9.96334e-06
9.73487e-06
0.00286269
3.85233e-05
0.00289103
3.82949e-05
0.00286247
9.96334e-06
9.73487e-06
3.85233e-05
0.00286269
0.00289103
0.00286247
3.82949e-05
9.96334e-06
9.73487e-06
3.85233e-05
0.00286269
0.00289103
0.00286247
3.82949e-05
9.96334e-06
9.77471e-06
0.00289107
0.00289107
6.68947e-05
3.83347e-05
0.00286251
3.83347e-05
9.77471e-06
0.00289107
0.00289107
6.68947e-05
3.83347e-05
0.00286251
3.83347e-05
9.77471e-06
0.00289107
6.68947e-05
0.00289107
0.00286251
3.83347e-05
3.83347e-05
9.77471e-06
0.00289107
6.68947e-05
0.00289107
0.00286251
3.83347e-05
3.83347e-05
)
;

boundaryField
{
    walls
    {
        type            fixedGradient;
        gradient        uniform 10;
    }
    inlet
    {
        type            fixedValue;
        value           uniform 1;
    }
    outlet
    {
        type            fixedGradient;
        gradient        uniform 10;
    }
}


// ************************************************************************* //
