/*--------------------------------*- C++ -*----------------------------------*\
| =========                 |                                                 |
| \\      /  F ield         | OpenFOAM: The Open Source CFD Toolbox           |
|  \\    /   O peration     | Version:  2.3.0                                 |
|   \\  /    A nd           | Web:      www.OpenFOAM.org                      |
|    \\/     M anipulation  |                                                 |
\*---------------------------------------------------------------------------*/
FoamFile
{
    version     2.0;
    format      ascii;
    class       volScalarField;
    location    "6";
    object      gradTz;
}
// * * * * * * * * * * * * * * * * * * * * * * * * * * * * * * * * * * * * * //

dimensions      [0 -1 0 1 0 0 0];

internalField   nonuniform List<scalar> 
64
(
-0.0396135
-0.0396135
-0.0396135
-0.0396135
5
5
5
5
-1.45241e-08
-0.0396174
-0.0399951
-1.44503e-08
-1.45234e-08
-1.44511e-08
-0.0399989
-1.45241e-08
-0.0396174
-0.0399951
-1.44503e-08
-1.45234e-08
-1.44511e-08
-0.0399989
-1.45241e-08
-0.0399951
-0.0396174
-1.44503e-08
-1.44511e-08
-1.45234e-08
-0.0399989
-1.45241e-08
-0.0399951
-0.0396174
-1.44503e-08
-1.44511e-08
-1.45234e-08
-0.0399989
1.916e-06
1.916e-06
5
5
1.916e-06
1.916e-06
5
1.916e-06
1.916e-06
5
5
1.916e-06
1.916e-06
5
1.916e-06
1.916e-06
5
5
1.916e-06
1.916e-06
5
1.916e-06
1.916e-06
5
5
1.916e-06
1.916e-06
5
)
;

boundaryField
{
    walls
    {
        type            calculated;
        value           nonuniform List<scalar> 
64
(
-0.0396135
-0.0396135
-0.0396135
-0.0396135
5
5
-0.0396135
5
5
-0.0396135
-0.0396135
5
5
-0.0396135
5
5
-1.44503e-08
-1.44511e-08
-0.0396174
-1.44503e-08
-1.45234e-08
-0.0399951
-0.0399951
-1.45234e-08
-1.44503e-08
-0.0396174
-1.44511e-08
-1.44503e-08
5
1.916e-06
1.916e-06
1.916e-06
1.916e-06
5
-0.0396174
-1.44511e-08
-1.44503e-08
5
1.916e-06
1.916e-06
1.916e-06
1.916e-06
5
-0.0399951
-1.45234e-08
-1.44503e-08
-1.44503e-08
-1.45234e-08
-0.0399951
5
1.916e-06
1.916e-06
1.916e-06
1.916e-06
5
-1.44503e-08
-1.44511e-08
-0.0396174
5
1.916e-06
1.916e-06
1.916e-06
1.916e-06
5
)
;
    }
    inlet
    {
        type            calculated;
        value           nonuniform List<scalar> 
16
(
-0.079227
-0.079227
-0.079227
-0.079227
-0.0799902
-0.0799978
-0.0792347
-0.0792347
-0.0799978
-0.0799902
-0.0799902
-0.0799978
-0.0792347
-0.0792347
-0.0799978
-0.0799902
)
;
    }
    outlet
    {
        type            calculated;
        value           uniform 10;
    }
}


// ************************************************************************* //
