/*--------------------------------*- C++ -*----------------------------------*\
| =========                 |                                                 |
| \\      /  F ield         | OpenFOAM: The Open Source CFD Toolbox           |
|  \\    /   O peration     | Version:  2.3.0                                 |
|   \\  /    A nd           | Web:      www.OpenFOAM.org                      |
|    \\/     M anipulation  |                                                 |
\*---------------------------------------------------------------------------*/
FoamFile
{
    version     2.0;
    format      ascii;
    class       volScalarField;
    location    "6";
    object      T;
}
// * * * * * * * * * * * * * * * * * * * * * * * * * * * * * * * * * * * * * //

dimensions      [0 0 0 1 0 0 0];

internalField   nonuniform List<scalar> 
64
(
0.00966231
0.00966231
0.00966231
0.00966231
0.00975735
0.00975735
0.00975735
0.00975735
2.64086e-05
0.00956655
0.000122935
0.00966155
0.000122169
0.00956579
2.71747e-05
2.64086e-05
0.00956655
0.000122935
0.00966155
0.000122169
0.00956579
2.71747e-05
2.64086e-05
0.000122935
0.00956655
0.00966155
0.00956579
0.000122169
2.71747e-05
2.64086e-05
0.000122935
0.00956655
0.00966155
0.00956579
0.000122169
2.71747e-05
2.64485e-05
0.00966159
0.00966159
0.000217968
0.000122208
0.00956583
0.000122208
2.64485e-05
0.00966159
0.00966159
0.000217968
0.000122208
0.00956583
0.000122208
2.64485e-05
0.00966159
0.000217968
0.00966159
0.00956583
0.000122208
0.000122208
2.64485e-05
0.00966159
0.000217968
0.00966159
0.00956583
0.000122208
0.000122208
)
;

boundaryField
{
    walls
    {
        type            fixedGradient;
        gradient        uniform 10;
    }
    inlet
    {
        type            fixedValue;
        value           uniform 1;
    }
    outlet
    {
        type            fixedGradient;
        gradient        uniform 10;
    }
}


// ************************************************************************* //
