/*--------------------------------*- C++ -*----------------------------------*\
| =========                 |                                                 |
| \\      /  F ield         | OpenFOAM: The Open Source CFD Toolbox           |
|  \\    /   O peration     | Version:  2.3.0                                 |
|   \\  /    A nd           | Web:      www.OpenFOAM.org                      |
|    \\/     M anipulation  |                                                 |
\*---------------------------------------------------------------------------*/
FoamFile
{
    version     2.0;
    format      ascii;
    class       volScalarField;
    location    "7.1";
    object      gradTz;
}
// * * * * * * * * * * * * * * * * * * * * * * * * * * * * * * * * * * * * * //

dimensions      [0 -1 0 1 0 0 0];

internalField   nonuniform List<scalar> 
64
(
-0.0395427
-0.0395427
-0.0395427
-0.0395427
5
5
5
5
-1.73398e-08
-0.0395472
-0.0399941
-1.72365e-08
-1.73388e-08
-1.72376e-08
-0.0399986
-1.73398e-08
-0.0395472
-0.0399941
-1.72365e-08
-1.73388e-08
-1.72376e-08
-0.0399986
-1.73398e-08
-0.0399941
-0.0395472
-1.72365e-08
-1.72376e-08
-1.73388e-08
-0.0399986
-1.73398e-08
-0.0399941
-0.0395472
-1.72365e-08
-1.72376e-08
-1.73388e-08
-0.0399986
2.268e-06
2.268e-06
5
5
2.268e-06
2.268e-06
5
2.268e-06
2.268e-06
5
5
2.268e-06
2.268e-06
5
2.268e-06
2.268e-06
5
5
2.268e-06
2.268e-06
5
2.268e-06
2.268e-06
5
5
2.268e-06
2.268e-06
5
)
;

boundaryField
{
    walls
    {
        type            calculated;
        value           nonuniform List<scalar> 
64
(
-0.0395427
-0.0395427
-0.0395427
-0.0395427
5
5
-0.0395427
5
5
-0.0395427
-0.0395427
5
5
-0.0395427
5
5
-1.72365e-08
-1.72376e-08
-0.0395472
-1.72365e-08
-1.73388e-08
-0.0399941
-0.0399941
-1.73388e-08
-1.72365e-08
-0.0395472
-1.72376e-08
-1.72365e-08
5
2.268e-06
2.268e-06
2.268e-06
2.268e-06
5
-0.0395472
-1.72376e-08
-1.72365e-08
5
2.268e-06
2.268e-06
2.268e-06
2.268e-06
5
-0.0399941
-1.73388e-08
-1.72365e-08
-1.72365e-08
-1.73388e-08
-0.0399941
5
2.268e-06
2.268e-06
2.268e-06
2.268e-06
5
-1.72365e-08
-1.72376e-08
-0.0395472
5
2.268e-06
2.268e-06
2.268e-06
2.268e-06
5
)
;
    }
    inlet
    {
        type            calculated;
        value           nonuniform List<scalar> 
16
(
-0.0790854
-0.0790854
-0.0790854
-0.0790854
-0.0799882
-0.0799972
-0.0790945
-0.0790945
-0.0799972
-0.0799882
-0.0799882
-0.0799972
-0.0790945
-0.0790945
-0.0799972
-0.0799882
)
;
    }
    outlet
    {
        type            calculated;
        value           uniform 10;
    }
}


// ************************************************************************* //
