/*--------------------------------*- C++ -*----------------------------------*\
| =========                 |                                                 |
| \\      /  F ield         | OpenFOAM: The Open Source CFD Toolbox           |
|  \\    /   O peration     | Version:  2.3.0                                 |
|   \\  /    A nd           | Web:      www.OpenFOAM.org                      |
|    \\/     M anipulation  |                                                 |
\*---------------------------------------------------------------------------*/
FoamFile
{
    version     2.0;
    format      ascii;
    class       volScalarField;
    location    "1.6";
    object      gradTz;
}
// * * * * * * * * * * * * * * * * * * * * * * * * * * * * * * * * * * * * * //

dimensions      [0 -1 0 1 0 0 0];

internalField   nonuniform List<scalar> 
64
(
-0.0398973
-0.0398973
-0.0398973
-0.0398973
5
5
5
5
-3.26074e-09
-0.0398983
-0.0399986
-3.25553e-09
-3.26069e-09
-3.25558e-09
-0.0399996
-3.26074e-09
-0.0398983
-0.0399986
-3.25553e-09
-3.26069e-09
-3.25558e-09
-0.0399996
-3.26074e-09
-0.0399986
-0.0398983
-3.25553e-09
-3.25558e-09
-3.26069e-09
-0.0399996
-3.26074e-09
-0.0399986
-0.0398983
-3.25553e-09
-3.25558e-09
-3.26069e-09
-0.0399996
5.07997e-07
5.07997e-07
5
5
5.07997e-07
5.07997e-07
5
5.07997e-07
5.07997e-07
5
5
5.07997e-07
5.07997e-07
5
5.07997e-07
5.07997e-07
5
5
5.07997e-07
5.07997e-07
5
5.07997e-07
5.07997e-07
5
5
5.07997e-07
5.07997e-07
5
)
;

boundaryField
{
    walls
    {
        type            calculated;
        value           nonuniform List<scalar> 
64
(
-0.0398973
-0.0398973
-0.0398973
-0.0398973
5
5
-0.0398973
5
5
-0.0398973
-0.0398973
5
5
-0.0398973
5
5
-3.25553e-09
-3.25558e-09
-0.0398983
-3.25553e-09
-3.26069e-09
-0.0399986
-0.0399986
-3.26069e-09
-3.25553e-09
-0.0398983
-3.25558e-09
-3.25553e-09
5
5.07997e-07
5.07997e-07
5.07997e-07
5.07997e-07
5
-0.0398983
-3.25558e-09
-3.25553e-09
5
5.07997e-07
5.07997e-07
5.07997e-07
5.07997e-07
5
-0.0399986
-3.26069e-09
-3.25553e-09
-3.25553e-09
-3.26069e-09
-0.0399986
5
5.07997e-07
5.07997e-07
5.07997e-07
5.07997e-07
5
-3.25553e-09
-3.25558e-09
-0.0398983
5
5.07997e-07
5.07997e-07
5.07997e-07
5.07997e-07
5
)
;
    }
    inlet
    {
        type            calculated;
        value           nonuniform List<scalar> 
16
(
-0.0797945
-0.0797945
-0.0797945
-0.0797945
-0.0799972
-0.0799992
-0.0797966
-0.0797966
-0.0799992
-0.0799972
-0.0799972
-0.0799992
-0.0797966
-0.0797966
-0.0799992
-0.0799972
)
;
    }
    outlet
    {
        type            calculated;
        value           uniform 10;
    }
}


// ************************************************************************* //
