/*--------------------------------*- C++ -*----------------------------------*\
| =========                 |                                                 |
| \\      /  F ield         | OpenFOAM: The Open Source CFD Toolbox           |
|  \\    /   O peration     | Version:  2.3.0                                 |
|   \\  /    A nd           | Web:      www.OpenFOAM.org                      |
|    \\/     M anipulation  |                                                 |
\*---------------------------------------------------------------------------*/
FoamFile
{
    version     2.0;
    format      ascii;
    class       volScalarField;
    location    "1.3";
    object      T;
}
// * * * * * * * * * * * * * * * * * * * * * * * * * * * * * * * * * * * * * //

dimensions      [0 0 0 1 0 0 0];

internalField   nonuniform List<scalar> 
64
(
0.00208398
0.00208398
0.00208398
0.00208398
0.00210441
0.00210441
0.00210441
0.00210441
8.94845e-06
0.00206342
2.96729e-05
0.00208381
2.95084e-05
0.00206325
9.11293e-06
8.94845e-06
0.00206342
2.96729e-05
0.00208381
2.95084e-05
0.00206325
9.11293e-06
8.94845e-06
2.96729e-05
0.00206342
0.00208381
0.00206325
2.95084e-05
9.11293e-06
8.94845e-06
2.96729e-05
0.00206342
0.00208381
0.00206325
2.95084e-05
9.11293e-06
8.98829e-06
0.00208385
0.00208385
5.01083e-05
2.95483e-05
0.00206329
2.95483e-05
8.98829e-06
0.00208385
0.00208385
5.01083e-05
2.95483e-05
0.00206329
2.95483e-05
8.98829e-06
0.00208385
5.01083e-05
0.00208385
0.00206329
2.95483e-05
2.95483e-05
8.98829e-06
0.00208385
5.01083e-05
0.00208385
0.00206329
2.95483e-05
2.95483e-05
)
;

boundaryField
{
    walls
    {
        type            fixedGradient;
        gradient        uniform 10;
    }
    inlet
    {
        type            fixedValue;
        value           uniform 1;
    }
    outlet
    {
        type            fixedGradient;
        gradient        uniform 10;
    }
}


// ************************************************************************* //
