/*--------------------------------*- C++ -*----------------------------------*\
| =========                 |                                                 |
| \\      /  F ield         | OpenFOAM: The Open Source CFD Toolbox           |
|  \\    /   O peration     | Version:  2.3.0                                 |
|   \\  /    A nd           | Web:      www.OpenFOAM.org                      |
|    \\/     M anipulation  |                                                 |
\*---------------------------------------------------------------------------*/
FoamFile
{
    version     2.0;
    format      ascii;
    class       volScalarField;
    location    "0.8";
    object      gradTz;
}
// * * * * * * * * * * * * * * * * * * * * * * * * * * * * * * * * * * * * * //

dimensions      [0 -1 0 1 0 0 0];

internalField   nonuniform List<scalar> 
64
(
-0.0399489
-0.0399489
-0.0399489
-0.0399489
5
5
5
5
-1.21278e-09
-0.0399494
-0.0399992
-1.21149e-09
-1.21276e-09
-1.21151e-09
-0.0399997
-1.21278e-09
-0.0399494
-0.0399992
-1.21149e-09
-1.21276e-09
-1.21151e-09
-0.0399997
-1.21278e-09
-0.0399992
-0.0399494
-1.21149e-09
-1.21151e-09
-1.21276e-09
-0.0399997
-1.21278e-09
-0.0399992
-0.0399494
-1.21149e-09
-1.21151e-09
-1.21276e-09
-0.0399997
2.51997e-07
2.51997e-07
5
5
2.51997e-07
2.51997e-07
5
2.51997e-07
2.51997e-07
5
5
2.51997e-07
2.51997e-07
5
2.51997e-07
2.51997e-07
5
5
2.51997e-07
2.51997e-07
5
2.51997e-07
2.51997e-07
5
5
2.51997e-07
2.51997e-07
5
)
;

boundaryField
{
    walls
    {
        type            calculated;
        value           nonuniform List<scalar> 
64
(
-0.0399489
-0.0399489
-0.0399489
-0.0399489
5
5
-0.0399489
5
5
-0.0399489
-0.0399489
5
5
-0.0399489
5
5
-1.21149e-09
-1.21151e-09
-0.0399494
-1.21149e-09
-1.21276e-09
-0.0399992
-0.0399992
-1.21276e-09
-1.21149e-09
-0.0399494
-1.21151e-09
-1.21149e-09
5
2.51997e-07
2.51997e-07
2.51997e-07
2.51997e-07
5
-0.0399494
-1.21151e-09
-1.21149e-09
5
2.51997e-07
2.51997e-07
2.51997e-07
2.51997e-07
5
-0.0399992
-1.21276e-09
-1.21149e-09
-1.21149e-09
-1.21276e-09
-0.0399992
5
2.51997e-07
2.51997e-07
2.51997e-07
2.51997e-07
5
-1.21149e-09
-1.21151e-09
-0.0399494
5
2.51997e-07
2.51997e-07
2.51997e-07
2.51997e-07
5
)
;
    }
    inlet
    {
        type            calculated;
        value           nonuniform List<scalar> 
16
(
-0.0798979
-0.0798979
-0.0798979
-0.0798979
-0.0799983
-0.0799993
-0.0798989
-0.0798989
-0.0799993
-0.0799983
-0.0799983
-0.0799993
-0.0798989
-0.0798989
-0.0799993
-0.0799983
)
;
    }
    outlet
    {
        type            calculated;
        value           uniform 10;
    }
}


// ************************************************************************* //
