/*--------------------------------*- C++ -*----------------------------------*\
| =========                 |                                                 |
| \\      /  F ield         | OpenFOAM: The Open Source CFD Toolbox           |
|  \\    /   O peration     | Version:  2.3.0                                 |
|   \\  /    A nd           | Web:      www.OpenFOAM.org                      |
|    \\/     M anipulation  |                                                 |
\*---------------------------------------------------------------------------*/
FoamFile
{
    version     2.0;
    format      ascii;
    class       volScalarField;
    location    "0.8";
    object      T;
}
// * * * * * * * * * * * * * * * * * * * * * * * * * * * * * * * * * * * * * //

dimensions      [0 0 0 1 0 0 0];

internalField   nonuniform List<scalar> 
64
(
0.00127644
0.00127644
0.00127644
0.00127644
0.00128894
0.00128894
0.00128894
0.00128894
8.41761e-06
0.00126388
2.10781e-05
0.00127634
2.09776e-05
0.00126378
8.51809e-06
8.41761e-06
0.00126388
2.10781e-05
0.00127634
2.09776e-05
0.00126378
8.51809e-06
8.41761e-06
2.10781e-05
0.00126388
0.00127634
0.00126378
2.09776e-05
8.51809e-06
8.41761e-06
2.10781e-05
0.00126388
0.00127634
0.00126378
2.09776e-05
8.51809e-06
8.45745e-06
0.00127638
0.00127638
3.35774e-05
2.10174e-05
0.00126382
2.10174e-05
8.45745e-06
0.00127638
0.00127638
3.35774e-05
2.10174e-05
0.00126382
2.10174e-05
8.45745e-06
0.00127638
3.35774e-05
0.00127638
0.00126382
2.10174e-05
2.10174e-05
8.45745e-06
0.00127638
3.35774e-05
0.00127638
0.00126382
2.10174e-05
2.10174e-05
)
;

boundaryField
{
    walls
    {
        type            fixedGradient;
        gradient        uniform 10;
    }
    inlet
    {
        type            fixedValue;
        value           uniform 1;
    }
    outlet
    {
        type            fixedGradient;
        gradient        uniform 10;
    }
}


// ************************************************************************* //
