/*--------------------------------*- C++ -*----------------------------------*\
| =========                 |                                                 |
| \\      /  F ield         | OpenFOAM: The Open Source CFD Toolbox           |
|  \\    /   O peration     | Version:  2.3.0                                 |
|   \\  /    A nd           | Web:      www.OpenFOAM.org                      |
|    \\/     M anipulation  |                                                 |
\*---------------------------------------------------------------------------*/
FoamFile
{
    version     2.0;
    format      ascii;
    class       volScalarField;
    location    "7.4";
    object      gradTz;
}
// * * * * * * * * * * * * * * * * * * * * * * * * * * * * * * * * * * * * * //

dimensions      [0 -1 0 1 0 0 0];

internalField   nonuniform List<scalar> 
64
(
-0.0395234
-0.0395234
-0.0395234
-0.0395234
5
5
5
5
-1.81077e-08
-0.0395281
-0.0399938
-1.79955e-08
-1.81066e-08
-1.79967e-08
-0.0399985
-1.81077e-08
-0.0395281
-0.0399938
-1.79955e-08
-1.81066e-08
-1.79967e-08
-0.0399985
-1.81077e-08
-0.0399938
-0.0395281
-1.79955e-08
-1.79967e-08
-1.81066e-08
-0.0399985
-1.81077e-08
-0.0399938
-0.0395281
-1.79955e-08
-1.79967e-08
-1.81066e-08
-0.0399985
2.364e-06
2.364e-06
5
5
2.364e-06
2.364e-06
5
2.364e-06
2.364e-06
5
5
2.364e-06
2.364e-06
5
2.364e-06
2.364e-06
5
5
2.364e-06
2.364e-06
5
2.364e-06
2.364e-06
5
5
2.364e-06
2.364e-06
5
)
;

boundaryField
{
    walls
    {
        type            calculated;
        value           nonuniform List<scalar> 
64
(
-0.0395234
-0.0395234
-0.0395234
-0.0395234
5
5
-0.0395234
5
5
-0.0395234
-0.0395234
5
5
-0.0395234
5
5
-1.79955e-08
-1.79967e-08
-0.0395281
-1.79955e-08
-1.81066e-08
-0.0399938
-0.0399938
-1.81066e-08
-1.79955e-08
-0.0395281
-1.79967e-08
-1.79955e-08
5
2.364e-06
2.364e-06
2.364e-06
2.364e-06
5
-0.0395281
-1.79967e-08
-1.79955e-08
5
2.364e-06
2.364e-06
2.364e-06
2.364e-06
5
-0.0399938
-1.81066e-08
-1.79955e-08
-1.79955e-08
-1.81066e-08
-0.0399938
5
2.364e-06
2.364e-06
2.364e-06
2.364e-06
5
-1.79955e-08
-1.79967e-08
-0.0395281
5
2.364e-06
2.364e-06
2.364e-06
2.364e-06
5
)
;
    }
    inlet
    {
        type            calculated;
        value           nonuniform List<scalar> 
16
(
-0.0790468
-0.0790468
-0.0790468
-0.0790468
-0.0799876
-0.079997
-0.0790562
-0.0790562
-0.079997
-0.0799876
-0.0799876
-0.079997
-0.0790562
-0.0790562
-0.079997
-0.0799876
)
;
    }
    outlet
    {
        type            calculated;
        value           uniform 10;
    }
}


// ************************************************************************* //
