/*--------------------------------*- C++ -*----------------------------------*\
| =========                 |                                                 |
| \\      /  F ield         | OpenFOAM: The Open Source CFD Toolbox           |
|  \\    /   O peration     | Version:  2.3.0                                 |
|   \\  /    A nd           | Web:      www.OpenFOAM.org                      |
|    \\/     M anipulation  |                                                 |
\*---------------------------------------------------------------------------*/
FoamFile
{
    version     2.0;
    format      ascii;
    class       volScalarField;
    location    "4.3";
    object      gradTz;
}
// * * * * * * * * * * * * * * * * * * * * * * * * * * * * * * * * * * * * * //

dimensions      [0 -1 0 1 0 0 0];

internalField   nonuniform List<scalar> 
64
(
-0.0397231
-0.0397231
-0.0397231
-0.0397231
5
5
5
5
-1.01724e-08
-0.0397258
-0.0399965
-1.01346e-08
-1.01721e-08
-1.01349e-08
-0.0399993
-1.01724e-08
-0.0397258
-0.0399965
-1.01346e-08
-1.01721e-08
-1.01349e-08
-0.0399993
-1.01725e-08
-0.0399965
-0.0397258
-1.01346e-08
-1.01349e-08
-1.01721e-08
-0.0399993
-1.01725e-08
-0.0399965
-0.0397258
-1.01346e-08
-1.01349e-08
-1.01721e-08
-0.0399993
1.372e-06
1.372e-06
5
5
1.372e-06
1.372e-06
5
1.372e-06
1.372e-06
5
5
1.372e-06
1.372e-06
5
1.372e-06
1.372e-06
5
5
1.372e-06
1.372e-06
5
1.372e-06
1.372e-06
5
5
1.372e-06
1.372e-06
5
)
;

boundaryField
{
    walls
    {
        type            calculated;
        value           nonuniform List<scalar> 
64
(
-0.0397231
-0.0397231
-0.0397231
-0.0397231
5
5
-0.0397231
5
5
-0.0397231
-0.0397231
5
5
-0.0397231
5
5
-1.01346e-08
-1.01349e-08
-0.0397258
-1.01346e-08
-1.01721e-08
-0.0399965
-0.0399965
-1.01721e-08
-1.01346e-08
-0.0397258
-1.01349e-08
-1.01346e-08
5
1.372e-06
1.372e-06
1.372e-06
1.372e-06
5
-0.0397258
-1.01349e-08
-1.01346e-08
5
1.372e-06
1.372e-06
1.372e-06
1.372e-06
5
-0.0399965
-1.01721e-08
-1.01346e-08
-1.01346e-08
-1.01721e-08
-0.0399965
5
1.372e-06
1.372e-06
1.372e-06
1.372e-06
5
-1.01346e-08
-1.01349e-08
-0.0397258
5
1.372e-06
1.372e-06
1.372e-06
1.372e-06
5
)
;
    }
    inlet
    {
        type            calculated;
        value           nonuniform List<scalar> 
16
(
-0.0794461
-0.0794461
-0.0794461
-0.0794461
-0.0799931
-0.0799986
-0.0794516
-0.0794516
-0.0799986
-0.0799931
-0.0799931
-0.0799986
-0.0794516
-0.0794516
-0.0799986
-0.0799931
)
;
    }
    outlet
    {
        type            calculated;
        value           uniform 10;
    }
}


// ************************************************************************* //
