/*--------------------------------*- C++ -*----------------------------------*\
| =========                 |                                                 |
| \\      /  F ield         | OpenFOAM: The Open Source CFD Toolbox           |
|  \\    /   O peration     | Version:  2.3.0                                 |
|   \\  /    A nd           | Web:      www.OpenFOAM.org                      |
|    \\/     M anipulation  |                                                 |
\*---------------------------------------------------------------------------*/
FoamFile
{
    version     2.0;
    format      ascii;
    class       volScalarField;
    location    "4.3";
    object      T;
}
// * * * * * * * * * * * * * * * * * * * * * * * * * * * * * * * * * * * * * //

dimensions      [0 0 0 1 0 0 0];

internalField   nonuniform List<scalar> 
64
(
0.00692381
0.00692381
0.00692381
0.00692381
0.00699187
0.00699187
0.00699187
0.00699187
1.74949e-05
0.00685525
8.66033e-05
0.00692327
8.60549e-05
0.00685471
1.80434e-05
1.74949e-05
0.00685525
8.66033e-05
0.00692327
8.60549e-05
0.00685471
1.80434e-05
1.74949e-05
8.66033e-05
0.00685525
0.00692327
0.00685471
8.60549e-05
1.80434e-05
1.74949e-05
8.66033e-05
0.00685525
0.00692327
0.00685471
8.60549e-05
1.80434e-05
1.75348e-05
0.00692331
0.00692331
0.000154655
8.60947e-05
0.00685475
8.60947e-05
1.75348e-05
0.00692331
0.00692331
0.000154655
8.60947e-05
0.00685475
8.60947e-05
1.75348e-05
0.00692331
0.000154655
0.00692331
0.00685475
8.60947e-05
8.60947e-05
1.75348e-05
0.00692331
0.000154655
0.00692331
0.00685475
8.60947e-05
8.60947e-05
)
;

boundaryField
{
    walls
    {
        type            fixedGradient;
        gradient        uniform 10;
    }
    inlet
    {
        type            fixedValue;
        value           uniform 1;
    }
    outlet
    {
        type            fixedGradient;
        gradient        uniform 10;
    }
}


// ************************************************************************* //
