/*--------------------------------*- C++ -*----------------------------------*\
| =========                 |                                                 |
| \\      /  F ield         | OpenFOAM: The Open Source CFD Toolbox           |
|  \\    /   O peration     | Version:  2.3.0                                 |
|   \\  /    A nd           | Web:      www.OpenFOAM.org                      |
|    \\/     M anipulation  |                                                 |
\*---------------------------------------------------------------------------*/
FoamFile
{
    version     2.0;
    format      ascii;
    class       volScalarField;
    location    "1";
    object      gradTz;
}
// * * * * * * * * * * * * * * * * * * * * * * * * * * * * * * * * * * * * * //

dimensions      [0 -1 0 1 0 0 0];

internalField   nonuniform List<scalar> 
64
(
-0.039936
-0.039936
-0.039936
-0.039936
5
5
5
5
-1.72477e-09
-0.0399367
-0.039999
-1.72275e-09
-1.72475e-09
-1.72277e-09
-0.0399997
-1.72477e-09
-0.0399367
-0.039999
-1.72275e-09
-1.72475e-09
-1.72277e-09
-0.0399997
-1.72477e-09
-0.039999
-0.0399367
-1.72275e-09
-1.72277e-09
-1.72475e-09
-0.0399997
-1.72477e-09
-0.039999
-0.0399367
-1.72275e-09
-1.72277e-09
-1.72475e-09
-0.0399997
3.15997e-07
3.15997e-07
5
5
3.15997e-07
3.15997e-07
5
3.15997e-07
3.15997e-07
5
5
3.15997e-07
3.15997e-07
5
3.15997e-07
3.15997e-07
5
5
3.15997e-07
3.15997e-07
5
3.15997e-07
3.15997e-07
5
5
3.15997e-07
3.15997e-07
5
)
;

boundaryField
{
    walls
    {
        type            calculated;
        value           nonuniform List<scalar> 
64
(
-0.039936
-0.039936
-0.039936
-0.039936
5
5
-0.039936
5
5
-0.039936
-0.039936
5
5
-0.039936
5
5
-1.72275e-09
-1.72277e-09
-0.0399367
-1.72275e-09
-1.72475e-09
-0.039999
-0.039999
-1.72475e-09
-1.72275e-09
-0.0399367
-1.72277e-09
-1.72275e-09
5
3.15997e-07
3.15997e-07
3.15997e-07
3.15997e-07
5
-0.0399367
-1.72277e-09
-1.72275e-09
5
3.15997e-07
3.15997e-07
3.15997e-07
3.15997e-07
5
-0.039999
-1.72475e-09
-1.72275e-09
-1.72275e-09
-1.72475e-09
-0.039999
5
3.15997e-07
3.15997e-07
3.15997e-07
3.15997e-07
5
-1.72275e-09
-1.72277e-09
-0.0399367
5
3.15997e-07
3.15997e-07
3.15997e-07
3.15997e-07
5
)
;
    }
    inlet
    {
        type            calculated;
        value           nonuniform List<scalar> 
16
(
-0.079872
-0.079872
-0.079872
-0.079872
-0.079998
-0.0799993
-0.0798733
-0.0798733
-0.0799993
-0.079998
-0.079998
-0.0799993
-0.0798733
-0.0798733
-0.0799993
-0.079998
)
;
    }
    outlet
    {
        type            calculated;
        value           uniform 10;
    }
}


// ************************************************************************* //
