/*--------------------------------*- C++ -*----------------------------------*\
| =========                 |                                                 |
| \\      /  F ield         | OpenFOAM: The Open Source CFD Toolbox           |
|  \\    /   O peration     | Version:  2.3.0                                 |
|   \\  /    A nd           | Web:      www.OpenFOAM.org                      |
|    \\/     M anipulation  |                                                 |
\*---------------------------------------------------------------------------*/
FoamFile
{
    version     2.0;
    format      ascii;
    class       volScalarField;
    location    "1";
    object      T;
}
// * * * * * * * * * * * * * * * * * * * * * * * * * * * * * * * * * * * * * //

dimensions      [0 0 0 1 0 0 0];

internalField   nonuniform List<scalar> 
64
(
0.00159949
0.00159949
0.00159949
0.00159949
0.00161516
0.00161516
0.00161516
0.00161516
8.59927e-06
0.00158373
2.44853e-05
0.00159936
2.43593e-05
0.0015836
8.72534e-06
8.59927e-06
0.00158373
2.44853e-05
0.00159936
2.43593e-05
0.0015836
8.72534e-06
8.59927e-06
2.44853e-05
0.00158373
0.00159936
0.0015836
2.43593e-05
8.72534e-06
8.59927e-06
2.44853e-05
0.00158373
0.00159936
0.0015836
2.43593e-05
8.72534e-06
8.63911e-06
0.0015994
0.0015994
4.01591e-05
2.43991e-05
0.00158364
2.43991e-05
8.63911e-06
0.0015994
0.0015994
4.01591e-05
2.43991e-05
0.00158364
2.43991e-05
8.63911e-06
0.0015994
4.01591e-05
0.0015994
0.00158364
2.43991e-05
2.43991e-05
8.63911e-06
0.0015994
4.01591e-05
0.0015994
0.00158364
2.43991e-05
2.43991e-05
)
;

boundaryField
{
    walls
    {
        type            fixedGradient;
        gradient        uniform 10;
    }
    inlet
    {
        type            fixedValue;
        value           uniform 1;
    }
    outlet
    {
        type            fixedGradient;
        gradient        uniform 10;
    }
}


// ************************************************************************* //
