/*--------------------------------*- C++ -*----------------------------------*\
| =========                 |                                                 |
| \\      /  F ield         | OpenFOAM: The Open Source CFD Toolbox           |
|  \\    /   O peration     | Version:  2.3.0                                 |
|   \\  /    A nd           | Web:      www.OpenFOAM.org                      |
|    \\/     M anipulation  |                                                 |
\*---------------------------------------------------------------------------*/
FoamFile
{
    version     2.0;
    format      ascii;
    class       volScalarField;
    location    "5.8";
    object      T;
}
// * * * * * * * * * * * * * * * * * * * * * * * * * * * * * * * * * * * * * //

dimensions      [0 0 0 1 0 0 0];

internalField   nonuniform List<scalar> 
64
(
0.00934029
0.00934029
0.00934029
0.00934029
0.00943215
0.00943215
0.00943215
0.00943215
2.52074e-05
0.00924773
0.000118508
0.00933955
0.000117767
0.00924699
2.59479e-05
2.52074e-05
0.00924773
0.000118508
0.00933955
0.000117767
0.00924699
2.59479e-05
2.52074e-05
0.000118508
0.00924773
0.00933955
0.00924699
0.000117767
2.59479e-05
2.52074e-05
0.000118508
0.00924773
0.00933955
0.00924699
0.000117767
2.59479e-05
2.52473e-05
0.00933959
0.00933959
0.000210367
0.000117807
0.00924703
0.000117807
2.52473e-05
0.00933959
0.00933959
0.000210367
0.000117807
0.00924703
0.000117807
2.52473e-05
0.00933959
0.000210367
0.00933959
0.00924703
0.000117807
0.000117807
2.52473e-05
0.00933959
0.000210367
0.00933959
0.00924703
0.000117807
0.000117807
)
;

boundaryField
{
    walls
    {
        type            fixedGradient;
        gradient        uniform 10;
    }
    inlet
    {
        type            fixedValue;
        value           uniform 1;
    }
    outlet
    {
        type            fixedGradient;
        gradient        uniform 10;
    }
}


// ************************************************************************* //
