/*--------------------------------*- C++ -*----------------------------------*\
| =========                 |                                                 |
| \\      /  F ield         | OpenFOAM: The Open Source CFD Toolbox           |
|  \\    /   O peration     | Version:  2.3.0                                 |
|   \\  /    A nd           | Web:      www.OpenFOAM.org                      |
|    \\/     M anipulation  |                                                 |
\*---------------------------------------------------------------------------*/
FoamFile
{
    version     2.0;
    format      ascii;
    class       volScalarField;
    location    "3.4";
    object      T;
}
// * * * * * * * * * * * * * * * * * * * * * * * * * * * * * * * * * * * * * //

dimensions      [0 0 0 1 0 0 0];

internalField   nonuniform List<scalar> 
64
(
0.00547283
0.00547283
0.00547283
0.00547283
0.00552659
0.00552659
0.00552659
0.00552659
1.3967e-05
0.00541867
6.85602e-05
0.00547239
6.8127e-05
0.00541823
1.44003e-05
1.3967e-05
0.00541867
6.85602e-05
0.00547239
6.8127e-05
0.00541823
1.44003e-05
1.3967e-05
6.85602e-05
0.00541867
0.00547239
0.00541823
6.8127e-05
1.44003e-05
1.3967e-05
6.85602e-05
0.00541867
0.00547239
0.00541823
6.8127e-05
1.44003e-05
1.40068e-05
0.00547243
0.00547243
0.000122327
6.81668e-05
0.00541827
6.81668e-05
1.40068e-05
0.00547243
0.00547243
0.000122327
6.81668e-05
0.00541827
6.81668e-05
1.40068e-05
0.00547243
0.000122327
0.00547243
0.00541827
6.81668e-05
6.81668e-05
1.40068e-05
0.00547243
0.000122327
0.00547243
0.00541827
6.81668e-05
6.81668e-05
)
;

boundaryField
{
    walls
    {
        type            fixedGradient;
        gradient        uniform 10;
    }
    inlet
    {
        type            fixedValue;
        value           uniform 1;
    }
    outlet
    {
        type            fixedGradient;
        gradient        uniform 10;
    }
}


// ************************************************************************* //
