/*--------------------------------*- C++ -*----------------------------------*\
| =========                 |                                                 |
| \\      /  F ield         | OpenFOAM: The Open Source CFD Toolbox           |
|  \\    /   O peration     | Version:  2.3.0                                 |
|   \\  /    A nd           | Web:      www.OpenFOAM.org                      |
|    \\/     M anipulation  |                                                 |
\*---------------------------------------------------------------------------*/
FoamFile
{
    version     2.0;
    format      ascii;
    class       volScalarField;
    location    "5.6";
    object      gradTz;
}
// * * * * * * * * * * * * * * * * * * * * * * * * * * * * * * * * * * * * * //

dimensions      [0 -1 0 1 0 0 0];

internalField   nonuniform List<scalar> 
64
(
-0.0396393
-0.0396393
-0.0396393
-0.0396393
5
5
5
5
-1.35002e-08
-0.0396429
-0.0399954
-1.34359e-08
-1.34996e-08
-1.34366e-08
-0.039999
-1.35002e-08
-0.0396429
-0.0399954
-1.34359e-08
-1.34996e-08
-1.34366e-08
-0.039999
-1.35002e-08
-0.0399954
-0.0396429
-1.34359e-08
-1.34366e-08
-1.34996e-08
-0.039999
-1.35002e-08
-0.0399954
-0.0396429
-1.34359e-08
-1.34366e-08
-1.34996e-08
-0.039999
1.788e-06
1.788e-06
5
5
1.788e-06
1.788e-06
5
1.788e-06
1.788e-06
5
5
1.788e-06
1.788e-06
5
1.788e-06
1.788e-06
5
5
1.788e-06
1.788e-06
5
1.788e-06
1.788e-06
5
5
1.788e-06
1.788e-06
5
)
;

boundaryField
{
    walls
    {
        type            calculated;
        value           nonuniform List<scalar> 
64
(
-0.0396393
-0.0396393
-0.0396393
-0.0396393
5
5
-0.0396393
5
5
-0.0396393
-0.0396393
5
5
-0.0396393
5
5
-1.34359e-08
-1.34366e-08
-0.0396429
-1.34359e-08
-1.34996e-08
-0.0399954
-0.0399954
-1.34996e-08
-1.34359e-08
-0.0396429
-1.34366e-08
-1.34359e-08
5
1.788e-06
1.788e-06
1.788e-06
1.788e-06
5
-0.0396429
-1.34366e-08
-1.34359e-08
5
1.788e-06
1.788e-06
1.788e-06
1.788e-06
5
-0.0399954
-1.34996e-08
-1.34359e-08
-1.34359e-08
-1.34996e-08
-0.0399954
5
1.788e-06
1.788e-06
1.788e-06
1.788e-06
5
-1.34359e-08
-1.34366e-08
-0.0396429
5
1.788e-06
1.788e-06
1.788e-06
1.788e-06
5
)
;
    }
    inlet
    {
        type            calculated;
        value           nonuniform List<scalar> 
16
(
-0.0792785
-0.0792785
-0.0792785
-0.0792785
-0.0799909
-0.079998
-0.0792857
-0.0792857
-0.079998
-0.0799909
-0.0799909
-0.079998
-0.0792857
-0.0792857
-0.079998
-0.0799909
)
;
    }
    outlet
    {
        type            calculated;
        value           uniform 10;
    }
}


// ************************************************************************* //
