/*--------------------------------*- C++ -*----------------------------------*\
| =========                 |                                                 |
| \\      /  F ield         | OpenFOAM: The Open Source CFD Toolbox           |
|  \\    /   O peration     | Version:  2.3.0                                 |
|   \\  /    A nd           | Web:      www.OpenFOAM.org                      |
|    \\/     M anipulation  |                                                 |
\*---------------------------------------------------------------------------*/
FoamFile
{
    version     2.0;
    format      ascii;
    class       volScalarField;
    location    "5.6";
    object      T;
}
// * * * * * * * * * * * * * * * * * * * * * * * * * * * * * * * * * * * * * //

dimensions      [0 0 0 1 0 0 0];

internalField   nonuniform List<scalar> 
64
(
0.00901823
0.00901823
0.00901823
0.00901823
0.00910691
0.00910691
0.00910691
0.00910691
2.40468e-05
0.00892887
0.000114122
0.00901751
0.000113407
0.00892815
2.47617e-05
2.40468e-05
0.00892887
0.000114122
0.00901751
0.000113407
0.00892815
2.47617e-05
2.40468e-05
0.000114122
0.00892887
0.00901751
0.00892815
0.000113407
2.47617e-05
2.40468e-05
0.000114122
0.00892887
0.00901751
0.00892815
0.000113407
2.47617e-05
2.40867e-05
0.00901755
0.00901755
0.000202807
0.000113447
0.00892819
0.000113447
2.40867e-05
0.00901755
0.00901755
0.000202807
0.000113447
0.00892819
0.000113447
2.40867e-05
0.00901755
0.000202807
0.00901755
0.00892819
0.000113447
0.000113447
2.40867e-05
0.00901755
0.000202807
0.00901755
0.00892819
0.000113447
0.000113447
)
;

boundaryField
{
    walls
    {
        type            fixedGradient;
        gradient        uniform 10;
    }
    inlet
    {
        type            fixedValue;
        value           uniform 1;
    }
    outlet
    {
        type            fixedGradient;
        gradient        uniform 10;
    }
}


// ************************************************************************* //
