/*--------------------------------*- C++ -*----------------------------------*\
| =========                 |                                                 |
| \\      /  F ield         | OpenFOAM: The Open Source CFD Toolbox           |
|  \\    /   O peration     | Version:  2.3.0                                 |
|   \\  /    A nd           | Web:      www.OpenFOAM.org                      |
|    \\/     M anipulation  |                                                 |
\*---------------------------------------------------------------------------*/
FoamFile
{
    version     2.0;
    format      ascii;
    class       volScalarField;
    location    "6.1";
    object      gradTz;
}
// * * * * * * * * * * * * * * * * * * * * * * * * * * * * * * * * * * * * * //

dimensions      [0 -1 0 1 0 0 0];

internalField   nonuniform List<scalar> 
64
(
-0.0396071
-0.0396071
-0.0396071
-0.0396071
5
5
5
5
-1.47801e-08
-0.039611
-0.039995
-1.47038e-08
-1.47793e-08
-1.47046e-08
-0.0399989
-1.47801e-08
-0.039611
-0.039995
-1.47038e-08
-1.47793e-08
-1.47046e-08
-0.0399989
-1.47801e-08
-0.039995
-0.039611
-1.47038e-08
-1.47046e-08
-1.47793e-08
-0.0399989
-1.47801e-08
-0.039995
-0.039611
-1.47038e-08
-1.47046e-08
-1.47793e-08
-0.0399989
1.948e-06
1.948e-06
5
5
1.948e-06
1.948e-06
5
1.948e-06
1.948e-06
5
5
1.948e-06
1.948e-06
5
1.948e-06
1.948e-06
5
5
1.948e-06
1.948e-06
5
1.948e-06
1.948e-06
5
5
1.948e-06
1.948e-06
5
)
;

boundaryField
{
    walls
    {
        type            calculated;
        value           nonuniform List<scalar> 
64
(
-0.0396071
-0.0396071
-0.0396071
-0.0396071
5
5
-0.0396071
5
5
-0.0396071
-0.0396071
5
5
-0.0396071
5
5
-1.47038e-08
-1.47046e-08
-0.039611
-1.47038e-08
-1.47793e-08
-0.039995
-0.039995
-1.47793e-08
-1.47038e-08
-0.039611
-1.47046e-08
-1.47038e-08
5
1.948e-06
1.948e-06
1.948e-06
1.948e-06
5
-0.039611
-1.47046e-08
-1.47038e-08
5
1.948e-06
1.948e-06
1.948e-06
1.948e-06
5
-0.039995
-1.47793e-08
-1.47038e-08
-1.47038e-08
-1.47793e-08
-0.039995
5
1.948e-06
1.948e-06
1.948e-06
1.948e-06
5
-1.47038e-08
-1.47046e-08
-0.039611
5
1.948e-06
1.948e-06
1.948e-06
1.948e-06
5
)
;
    }
    inlet
    {
        type            calculated;
        value           nonuniform List<scalar> 
16
(
-0.0792141
-0.0792141
-0.0792141
-0.0792141
-0.07999
-0.0799978
-0.0792219
-0.0792219
-0.0799978
-0.07999
-0.07999
-0.0799978
-0.0792219
-0.0792219
-0.0799978
-0.07999
)
;
    }
    outlet
    {
        type            calculated;
        value           uniform 10;
    }
}


// ************************************************************************* //
