/*--------------------------------*- C++ -*----------------------------------*\
| =========                 |                                                 |
| \\      /  F ield         | OpenFOAM: The Open Source CFD Toolbox           |
|  \\    /   O peration     | Version:  2.3.0                                 |
|   \\  /    A nd           | Web:      www.OpenFOAM.org                      |
|    \\/     M anipulation  |                                                 |
\*---------------------------------------------------------------------------*/
FoamFile
{
    version     2.0;
    format      ascii;
    class       volScalarField;
    location    "1.1";
    object      gradTz;
}
// * * * * * * * * * * * * * * * * * * * * * * * * * * * * * * * * * * * * * //

dimensions      [0 -1 0 1 0 0 0];

internalField   nonuniform List<scalar> 
64
(
-0.0399296
-0.0399296
-0.0399296
-0.0399296
5
5
5
5
-1.98076e-09
-0.0399303
-0.039999
-1.97832e-09
-1.98074e-09
-1.97834e-09
-0.0399996
-1.98076e-09
-0.0399303
-0.039999
-1.97832e-09
-1.98074e-09
-1.97834e-09
-0.0399996
-1.98076e-09
-0.039999
-0.0399303
-1.97832e-09
-1.97834e-09
-1.98074e-09
-0.0399996
-1.98076e-09
-0.039999
-0.0399303
-1.97832e-09
-1.97834e-09
-1.98074e-09
-0.0399996
3.47997e-07
3.47997e-07
5
5
3.47997e-07
3.47997e-07
5
3.47997e-07
3.47997e-07
5
5
3.47997e-07
3.47997e-07
5
3.47997e-07
3.47997e-07
5
5
3.47997e-07
3.47997e-07
5
3.47997e-07
3.47997e-07
5
5
3.47997e-07
3.47997e-07
5
)
;

boundaryField
{
    walls
    {
        type            calculated;
        value           nonuniform List<scalar> 
64
(
-0.0399296
-0.0399296
-0.0399296
-0.0399296
5
5
-0.0399296
5
5
-0.0399296
-0.0399296
5
5
-0.0399296
5
5
-1.97832e-09
-1.97834e-09
-0.0399303
-1.97832e-09
-1.98074e-09
-0.039999
-0.039999
-1.98074e-09
-1.97832e-09
-0.0399303
-1.97834e-09
-1.97832e-09
5
3.47997e-07
3.47997e-07
3.47997e-07
3.47997e-07
5
-0.0399303
-1.97834e-09
-1.97832e-09
5
3.47997e-07
3.47997e-07
3.47997e-07
3.47997e-07
5
-0.039999
-1.98074e-09
-1.97832e-09
-1.97832e-09
-1.98074e-09
-0.039999
5
3.47997e-07
3.47997e-07
3.47997e-07
3.47997e-07
5
-1.97832e-09
-1.97834e-09
-0.0399303
5
3.47997e-07
3.47997e-07
3.47997e-07
3.47997e-07
5
)
;
    }
    inlet
    {
        type            calculated;
        value           nonuniform List<scalar> 
16
(
-0.0798591
-0.0798591
-0.0798591
-0.0798591
-0.0799979
-0.0799993
-0.0798605
-0.0798605
-0.0799993
-0.0799979
-0.0799979
-0.0799993
-0.0798605
-0.0798605
-0.0799993
-0.0799979
)
;
    }
    outlet
    {
        type            calculated;
        value           uniform 10;
    }
}


// ************************************************************************* //
