/*--------------------------------*- C++ -*----------------------------------*\
| =========                 |                                                 |
| \\      /  F ield         | OpenFOAM: The Open Source CFD Toolbox           |
|  \\    /   O peration     | Version:  2.3.0                                 |
|   \\  /    A nd           | Web:      www.OpenFOAM.org                      |
|    \\/     M anipulation  |                                                 |
\*---------------------------------------------------------------------------*/
FoamFile
{
    version     2.0;
    format      ascii;
    class       volScalarField;
    location    "1.1";
    object      T;
}
// * * * * * * * * * * * * * * * * * * * * * * * * * * * * * * * * * * * * * //

dimensions      [0 0 0 1 0 0 0];

internalField   nonuniform List<scalar> 
64
(
0.00176099
0.00176099
0.00176099
0.00176099
0.00177825
0.00177825
0.00177825
0.00177825
8.70543e-06
0.00174363
2.62043e-05
0.00176085
2.60654e-05
0.00174349
8.84431e-06
8.70543e-06
0.00174363
2.62043e-05
0.00176085
2.60654e-05
0.00174349
8.84431e-06
8.70543e-06
2.62043e-05
0.00174363
0.00176085
0.00174349
2.60654e-05
8.84431e-06
8.70543e-06
2.62043e-05
0.00174363
0.00176085
0.00174349
2.60654e-05
8.84431e-06
8.74528e-06
0.00176089
0.00176089
4.34653e-05
2.61053e-05
0.00174353
2.61053e-05
8.74528e-06
0.00176089
0.00176089
4.34653e-05
2.61053e-05
0.00174353
2.61053e-05
8.74528e-06
0.00176089
4.34653e-05
0.00176089
0.00174353
2.61053e-05
2.61053e-05
8.74528e-06
0.00176089
4.34653e-05
0.00176089
0.00174353
2.61053e-05
2.61053e-05
)
;

boundaryField
{
    walls
    {
        type            fixedGradient;
        gradient        uniform 10;
    }
    inlet
    {
        type            fixedValue;
        value           uniform 1;
    }
    outlet
    {
        type            fixedGradient;
        gradient        uniform 10;
    }
}


// ************************************************************************* //
