/*--------------------------------*- C++ -*----------------------------------*\
| =========                 |                                                 |
| \\      /  F ield         | OpenFOAM: The Open Source CFD Toolbox           |
|  \\    /   O peration     | Version:  2.3.0                                 |
|   \\  /    A nd           | Web:      www.OpenFOAM.org                      |
|    \\/     M anipulation  |                                                 |
\*---------------------------------------------------------------------------*/
FoamFile
{
    version     2.0;
    format      ascii;
    class       volScalarField;
    location    "5.9";
    object      gradTz;
}
// * * * * * * * * * * * * * * * * * * * * * * * * * * * * * * * * * * * * * //

dimensions      [0 -1 0 1 0 0 0];

internalField   nonuniform List<scalar> 
64
(
-0.03962
-0.03962
-0.03962
-0.03962
5
5
5
5
-1.42681e-08
-0.0396237
-0.0399952
-1.41968e-08
-1.42674e-08
-1.41975e-08
-0.039999
-1.42681e-08
-0.0396237
-0.0399952
-1.41968e-08
-1.42674e-08
-1.41975e-08
-0.039999
-1.42681e-08
-0.0399952
-0.0396237
-1.41968e-08
-1.41975e-08
-1.42674e-08
-0.039999
-1.42681e-08
-0.0399952
-0.0396237
-1.41968e-08
-1.41975e-08
-1.42674e-08
-0.039999
1.884e-06
1.884e-06
5
5
1.884e-06
1.884e-06
5
1.884e-06
1.884e-06
5
5
1.884e-06
1.884e-06
5
1.884e-06
1.884e-06
5
5
1.884e-06
1.884e-06
5
1.884e-06
1.884e-06
5
5
1.884e-06
1.884e-06
5
)
;

boundaryField
{
    walls
    {
        type            calculated;
        value           nonuniform List<scalar> 
64
(
-0.03962
-0.03962
-0.03962
-0.03962
5
5
-0.03962
5
5
-0.03962
-0.03962
5
5
-0.03962
5
5
-1.41968e-08
-1.41975e-08
-0.0396237
-1.41968e-08
-1.42674e-08
-0.0399952
-0.0399952
-1.42674e-08
-1.41968e-08
-0.0396237
-1.41975e-08
-1.41968e-08
5
1.884e-06
1.884e-06
1.884e-06
1.884e-06
5
-0.0396237
-1.41975e-08
-1.41968e-08
5
1.884e-06
1.884e-06
1.884e-06
1.884e-06
5
-0.0399952
-1.42674e-08
-1.41968e-08
-1.41968e-08
-1.42674e-08
-0.0399952
5
1.884e-06
1.884e-06
1.884e-06
1.884e-06
5
-1.41968e-08
-1.41975e-08
-0.0396237
5
1.884e-06
1.884e-06
1.884e-06
1.884e-06
5
)
;
    }
    inlet
    {
        type            calculated;
        value           nonuniform List<scalar> 
16
(
-0.0792399
-0.0792399
-0.0792399
-0.0792399
-0.0799903
-0.0799979
-0.0792474
-0.0792474
-0.0799979
-0.0799903
-0.0799903
-0.0799979
-0.0792474
-0.0792474
-0.0799979
-0.0799903
)
;
    }
    outlet
    {
        type            calculated;
        value           uniform 10;
    }
}


// ************************************************************************* //
