/*--------------------------------*- C++ -*----------------------------------*\
| =========                 |                                                 |
| \\      /  F ield         | OpenFOAM: The Open Source CFD Toolbox           |
|  \\    /   O peration     | Version:  2.3.0                                 |
|   \\  /    A nd           | Web:      www.OpenFOAM.org                      |
|    \\/     M anipulation  |                                                 |
\*---------------------------------------------------------------------------*/
FoamFile
{
    version     2.0;
    format      ascii;
    class       volScalarField;
    location    "0.6";
    object      gradTz;
}
// * * * * * * * * * * * * * * * * * * * * * * * * * * * * * * * * * * * * * //

dimensions      [0 -1 0 1 0 0 0];

internalField   nonuniform List<scalar> 
64
(
-0.0399619
-0.0399619
-0.0399619
-0.0399619
5
5
5
5
-7.00784e-10
-0.0399622
-0.0399993
-7.0007e-10
-7.00777e-10
-7.00078e-10
-0.0399997
-7.00784e-10
-0.0399622
-0.0399993
-7.0007e-10
-7.00777e-10
-7.00078e-10
-0.0399997
-7.00784e-10
-0.0399993
-0.0399622
-7.0007e-10
-7.00078e-10
-7.00777e-10
-0.0399997
-7.00784e-10
-0.0399993
-0.0399622
-7.0007e-10
-7.00078e-10
-7.00777e-10
-0.0399997
1.87997e-07
1.87997e-07
5
5
1.87997e-07
1.87997e-07
5
1.87997e-07
1.87997e-07
5
5
1.87997e-07
1.87997e-07
5
1.87997e-07
1.87997e-07
5
5
1.87997e-07
1.87997e-07
5
1.87997e-07
1.87997e-07
5
5
1.87997e-07
1.87997e-07
5
)
;

boundaryField
{
    walls
    {
        type            calculated;
        value           nonuniform List<scalar> 
64
(
-0.0399619
-0.0399619
-0.0399619
-0.0399619
5
5
-0.0399619
5
5
-0.0399619
-0.0399619
5
5
-0.0399619
5
5
-7.0007e-10
-7.00078e-10
-0.0399622
-7.0007e-10
-7.00777e-10
-0.0399993
-0.0399993
-7.00777e-10
-7.0007e-10
-0.0399622
-7.00078e-10
-7.0007e-10
5
1.87997e-07
1.87997e-07
1.87997e-07
1.87997e-07
5
-0.0399622
-7.00078e-10
-7.0007e-10
5
1.87997e-07
1.87997e-07
1.87997e-07
1.87997e-07
5
-0.0399993
-7.00777e-10
-7.0007e-10
-7.0007e-10
-7.00777e-10
-0.0399993
5
1.87997e-07
1.87997e-07
1.87997e-07
1.87997e-07
5
-7.0007e-10
-7.00078e-10
-0.0399622
5
1.87997e-07
1.87997e-07
1.87997e-07
1.87997e-07
5
)
;
    }
    inlet
    {
        type            calculated;
        value           nonuniform List<scalar> 
16
(
-0.0799237
-0.0799237
-0.0799237
-0.0799237
-0.0799986
-0.0799993
-0.0799245
-0.0799245
-0.0799993
-0.0799986
-0.0799986
-0.0799993
-0.0799245
-0.0799245
-0.0799993
-0.0799986
)
;
    }
    outlet
    {
        type            calculated;
        value           uniform 10;
    }
}


// ************************************************************************* //
