/*--------------------------------*- C++ -*----------------------------------*\
| =========                 |                                                 |
| \\      /  F ield         | OpenFOAM: The Open Source CFD Toolbox           |
|  \\    /   O peration     | Version:  2.3.0                                 |
|   \\  /    A nd           | Web:      www.OpenFOAM.org                      |
|    \\/     M anipulation  |                                                 |
\*---------------------------------------------------------------------------*/
FoamFile
{
    version     2.0;
    format      ascii;
    class       volScalarField;
    location    "5.4";
    object      T;
}
// * * * * * * * * * * * * * * * * * * * * * * * * * * * * * * * * * * * * * //

dimensions      [0 0 0 1 0 0 0];

internalField   nonuniform List<scalar> 
64
(
0.00869612
0.00869612
0.00869612
0.00869612
0.00878163
0.00878163
0.00878163
0.00878163
2.29269e-05
0.00860996
0.000109776
0.00869543
0.000109087
0.00860927
2.36162e-05
2.29269e-05
0.00860996
0.000109776
0.00869543
0.000109087
0.00860927
2.36162e-05
2.29269e-05
0.000109776
0.00860996
0.00869543
0.00860927
0.000109087
2.36162e-05
2.29269e-05
0.000109776
0.00860996
0.00869543
0.00860927
0.000109087
2.36162e-05
2.29668e-05
0.00869547
0.00869547
0.000195287
0.000109127
0.00860931
0.000109127
2.29668e-05
0.00869547
0.00869547
0.000195287
0.000109127
0.00860931
0.000109127
2.29668e-05
0.00869547
0.000195287
0.00869547
0.00860931
0.000109127
0.000109127
2.29668e-05
0.00869547
0.000195287
0.00869547
0.00860931
0.000109127
0.000109127
)
;

boundaryField
{
    walls
    {
        type            fixedGradient;
        gradient        uniform 10;
    }
    inlet
    {
        type            fixedValue;
        value           uniform 1;
    }
    outlet
    {
        type            fixedGradient;
        gradient        uniform 10;
    }
}


// ************************************************************************* //
