/*--------------------------------*- C++ -*----------------------------------*\
| =========                 |                                                 |
| \\      /  F ield         | OpenFOAM: The Open Source CFD Toolbox           |
|  \\    /   O peration     | Version:  2.3.0                                 |
|   \\  /    A nd           | Web:      www.OpenFOAM.org                      |
|    \\/     M anipulation  |                                                 |
\*---------------------------------------------------------------------------*/
FoamFile
{
    version     2.0;
    format      ascii;
    class       volScalarField;
    location    "9.4";
    object      T;
}
// * * * * * * * * * * * * * * * * * * * * * * * * * * * * * * * * * * * * * //

dimensions      [0 0 0 1 0 0 0];

internalField   nonuniform List<scalar> 
64
(
0.0151305
0.0151305
0.0151305
0.0151305
0.0152795
0.0152795
0.0152795
0.0152795
5.304e-05
0.0149804
0.000204401
0.0151293
0.0002032
0.0149792
5.42412e-05
5.304e-05
0.0149804
0.000204401
0.0151293
0.0002032
0.0149792
5.42412e-05
5.304e-05
0.000204401
0.0149804
0.0151293
0.0149792
0.0002032
5.42412e-05
5.304e-05
0.000204401
0.0149804
0.0151293
0.0149792
0.0002032
5.42412e-05
5.30799e-05
0.0151294
0.0151294
0.0003534
0.00020324
0.0149792
0.00020324
5.30799e-05
0.0151294
0.0151294
0.0003534
0.00020324
0.0149792
0.00020324
5.30799e-05
0.0151294
0.0003534
0.0151294
0.0149792
0.00020324
0.00020324
5.30799e-05
0.0151294
0.0003534
0.0151294
0.0149792
0.00020324
0.00020324
)
;

boundaryField
{
    walls
    {
        type            fixedGradient;
        gradient        uniform 10;
    }
    inlet
    {
        type            fixedValue;
        value           uniform 1;
    }
    outlet
    {
        type            fixedGradient;
        gradient        uniform 10;
    }
}


// ************************************************************************* //
