/*--------------------------------*- C++ -*----------------------------------*\
| =========                 |                                                 |
| \\      /  F ield         | OpenFOAM: The Open Source CFD Toolbox           |
|  \\    /   O peration     | Version:  2.3.0                                 |
|   \\  /    A nd           | Web:      www.OpenFOAM.org                      |
|    \\/     M anipulation  |                                                 |
\*---------------------------------------------------------------------------*/
FoamFile
{
    version     2.0;
    format      ascii;
    class       volScalarField;
    location    "10";
    object      gradTz;
}
// * * * * * * * * * * * * * * * * * * * * * * * * * * * * * * * * * * * * * //

dimensions      [0 -1 0 1 0 0 0];

internalField   nonuniform List<scalar> 
64
(
-0.0393563
-0.0393563
-0.0393563
-0.0393563
5
5
5
5
-2.47627e-08
-0.0393626
-0.0399912
-2.45581e-08
-2.47606e-08
-2.45601e-08
-0.0399976
-2.47627e-08
-0.0393626
-0.0399912
-2.45581e-08
-2.47606e-08
-2.45601e-08
-0.0399976
-2.47627e-08
-0.0399912
-0.0393626
-2.45581e-08
-2.45601e-08
-2.47606e-08
-0.0399976
-2.47627e-08
-0.0399912
-0.0393626
-2.45581e-08
-2.45601e-08
-2.47606e-08
-0.0399976
3.196e-06
3.196e-06
5
5
3.196e-06
3.196e-06
5
3.196e-06
3.196e-06
5
5
3.196e-06
3.196e-06
5
3.196e-06
3.196e-06
5
5
3.196e-06
3.196e-06
5
3.196e-06
3.196e-06
5
5
3.196e-06
3.196e-06
5
)
;

boundaryField
{
    walls
    {
        type            calculated;
        value           nonuniform List<scalar> 
64
(
-0.0393563
-0.0393563
-0.0393563
-0.0393563
5
5
-0.0393563
5
5
-0.0393563
-0.0393563
5
5
-0.0393563
5
5
-2.45581e-08
-2.45601e-08
-0.0393626
-2.45581e-08
-2.47606e-08
-0.0399912
-0.0399912
-2.47606e-08
-2.45581e-08
-0.0393626
-2.45601e-08
-2.45581e-08
5
3.196e-06
3.196e-06
3.196e-06
3.196e-06
5
-0.0393626
-2.45601e-08
-2.45581e-08
5
3.196e-06
3.196e-06
3.196e-06
3.196e-06
5
-0.0399912
-2.47606e-08
-2.45581e-08
-2.45581e-08
-2.47606e-08
-0.0399912
5
3.196e-06
3.196e-06
3.196e-06
3.196e-06
5
-2.45581e-08
-2.45601e-08
-0.0393626
5
3.196e-06
3.196e-06
3.196e-06
3.196e-06
5
)
;
    }
    inlet
    {
        type            calculated;
        value           nonuniform List<scalar> 
16
(
-0.0787125
-0.0787125
-0.0787125
-0.0787125
-0.0799824
-0.0799952
-0.0787252
-0.0787252
-0.0799952
-0.0799824
-0.0799824
-0.0799952
-0.0787252
-0.0787252
-0.0799952
-0.0799824
)
;
    }
    outlet
    {
        type            calculated;
        value           uniform 10;
    }
}


// ************************************************************************* //
