/*--------------------------------*- C++ -*----------------------------------*\
| =========                 |                                                 |
| \\      /  F ield         | OpenFOAM: The Open Source CFD Toolbox           |
|  \\    /   O peration     | Version:  2.3.0                                 |
|   \\  /    A nd           | Web:      www.OpenFOAM.org                      |
|    \\/     M anipulation  |                                                 |
\*---------------------------------------------------------------------------*/
FoamFile
{
    version     2.0;
    format      ascii;
    class       volScalarField;
    location    "10";
    object      T;
}
// * * * * * * * * * * * * * * * * * * * * * * * * * * * * * * * * * * * * * //

dimensions      [0 0 0 1 0 0 0];

internalField   nonuniform List<scalar> 
64
(
0.0160943
0.0160943
0.0160943
0.0160943
0.0162528
0.0162528
0.0162528
0.0162528
5.89552e-05
0.0159345
0.000219993
0.016093
0.000218715
0.0159332
6.02332e-05
5.89552e-05
0.0159345
0.000219993
0.016093
0.000218715
0.0159332
6.02332e-05
5.89552e-05
0.000219993
0.0159345
0.016093
0.0159332
0.000218715
6.02332e-05
5.89552e-05
0.000219993
0.0159345
0.016093
0.0159332
0.000218715
6.02332e-05
5.89951e-05
0.016093
0.016093
0.000378515
0.000218755
0.0159333
0.000218755
5.89951e-05
0.016093
0.016093
0.000378515
0.000218755
0.0159333
0.000218755
5.89951e-05
0.016093
0.000378515
0.016093
0.0159333
0.000218755
0.000218755
5.89951e-05
0.016093
0.000378515
0.016093
0.0159333
0.000218755
0.000218755
)
;

boundaryField
{
    walls
    {
        type            fixedGradient;
        gradient        uniform 10;
    }
    inlet
    {
        type            fixedValue;
        value           uniform 1;
    }
    outlet
    {
        type            fixedGradient;
        gradient        uniform 10;
    }
}


// ************************************************************************* //
