/*--------------------------------*- C++ -*----------------------------------*\
| =========                 |                                                 |
| \\      /  F ield         | OpenFOAM: The Open Source CFD Toolbox           |
|  \\    /   O peration     | Version:  2.3.0                                 |
|   \\  /    A nd           | Web:      www.OpenFOAM.org                      |
|    \\/     M anipulation  |                                                 |
\*---------------------------------------------------------------------------*/
FoamFile
{
    version     2.0;
    format      ascii;
    class       volScalarField;
    location    "0.9";
    object      T;
}
// * * * * * * * * * * * * * * * * * * * * * * * * * * * * * * * * * * * * * //

dimensions      [0 0 0 1 0 0 0];

internalField   nonuniform List<scalar> 
64
(
0.00143797
0.00143797
0.00143797
0.00143797
0.00145206
0.00145206
0.00145206
0.00145206
8.50332e-06
0.00142381
2.27766e-05
0.00143786
2.26633e-05
0.0014237
8.6166e-06
8.50332e-06
0.00142381
2.27766e-05
0.00143786
2.26633e-05
0.0014237
8.6166e-06
8.50332e-06
2.27766e-05
0.00142381
0.00143786
0.0014237
2.26633e-05
8.6166e-06
8.50332e-06
2.27766e-05
0.00142381
0.00143786
0.0014237
2.26633e-05
8.6166e-06
8.54316e-06
0.0014379
0.0014379
3.68632e-05
2.27032e-05
0.00142374
2.27032e-05
8.54316e-06
0.0014379
0.0014379
3.68632e-05
2.27032e-05
0.00142374
2.27032e-05
8.54316e-06
0.0014379
3.68632e-05
0.0014379
0.00142374
2.27032e-05
2.27032e-05
8.54316e-06
0.0014379
3.68632e-05
0.0014379
0.00142374
2.27032e-05
2.27032e-05
)
;

boundaryField
{
    walls
    {
        type            fixedGradient;
        gradient        uniform 10;
    }
    inlet
    {
        type            fixedValue;
        value           uniform 1;
    }
    outlet
    {
        type            fixedGradient;
        gradient        uniform 10;
    }
}


// ************************************************************************* //
