/*--------------------------------*- C++ -*----------------------------------*\
| =========                 |                                                 |
| \\      /  F ield         | OpenFOAM: The Open Source CFD Toolbox           |
|  \\    /   O peration     | Version:  2.3.0                                 |
|   \\  /    A nd           | Web:      www.OpenFOAM.org                      |
|    \\/     M anipulation  |                                                 |
\*---------------------------------------------------------------------------*/
FoamFile
{
    version     2.0;
    format      ascii;
    class       volScalarField;
    location    "7.3";
    object      T;
}
// * * * * * * * * * * * * * * * * * * * * * * * * * * * * * * * * * * * * * //

dimensions      [0 0 0 1 0 0 0];

internalField   nonuniform List<scalar> 
64
(
0.0117545
0.0117545
0.0117545
0.0117545
0.0118702
0.0118702
0.0118702
0.0118702
3.52069e-05
0.0116379
0.000152699
0.0117536
0.000151767
0.011637
3.61394e-05
3.52069e-05
0.0116379
0.000152699
0.0117536
0.000151767
0.011637
3.61394e-05
3.52069e-05
0.000152699
0.0116379
0.0117536
0.011637
0.000151767
3.61394e-05
3.52069e-05
0.000152699
0.0116379
0.0117536
0.011637
0.000151767
3.61394e-05
3.52468e-05
0.0117536
0.0117536
0.000268367
0.000151807
0.011637
0.000151807
3.52468e-05
0.0117536
0.0117536
0.000268367
0.000151807
0.011637
0.000151807
3.52468e-05
0.0117536
0.000268367
0.0117536
0.011637
0.000151807
0.000151807
3.52468e-05
0.0117536
0.000268367
0.0117536
0.011637
0.000151807
0.000151807
)
;

boundaryField
{
    walls
    {
        type            fixedGradient;
        gradient        uniform 10;
    }
    inlet
    {
        type            fixedValue;
        value           uniform 1;
    }
    outlet
    {
        type            fixedGradient;
        gradient        uniform 10;
    }
}


// ************************************************************************* //
