/*--------------------------------*- C++ -*----------------------------------*\
| =========                 |                                                 |
| \\      /  F ield         | OpenFOAM: The Open Source CFD Toolbox           |
|  \\    /   O peration     | Version:  2.3.0                                 |
|   \\  /    A nd           | Web:      www.OpenFOAM.org                      |
|    \\/     M anipulation  |                                                 |
\*---------------------------------------------------------------------------*/
FoamFile
{
    version     2.0;
    format      ascii;
    class       volScalarField;
    location    "4.9";
    object      T;
}
// * * * * * * * * * * * * * * * * * * * * * * * * * * * * * * * * * * * * * //

dimensions      [0 0 0 1 0 0 0];

internalField   nonuniform List<scalar> 
64
(
0.00789068
0.00789068
0.00789068
0.00789068
0.00796826
0.00796826
0.00796826
0.00796826
2.03052e-05
0.00781252
9.90904e-05
0.00789006
9.84652e-05
0.0078119
2.09305e-05
2.03052e-05
0.00781252
9.90904e-05
0.00789006
9.84652e-05
0.0078119
2.09305e-05
2.03052e-05
9.90904e-05
0.00781252
0.00789006
0.0078119
9.84652e-05
2.09305e-05
2.03052e-05
9.90904e-05
0.00781252
0.00789006
0.0078119
9.84652e-05
2.09305e-05
2.0345e-05
0.0078901
0.0078901
0.000176665
9.8505e-05
0.00781194
9.8505e-05
2.0345e-05
0.0078901
0.0078901
0.000176665
9.8505e-05
0.00781194
9.8505e-05
2.0345e-05
0.0078901
0.000176665
0.0078901
0.00781194
9.8505e-05
9.8505e-05
2.0345e-05
0.0078901
0.000176665
0.0078901
0.00781194
9.8505e-05
9.8505e-05
)
;

boundaryField
{
    walls
    {
        type            fixedGradient;
        gradient        uniform 10;
    }
    inlet
    {
        type            fixedValue;
        value           uniform 1;
    }
    outlet
    {
        type            fixedGradient;
        gradient        uniform 10;
    }
}


// ************************************************************************* //
