/*--------------------------------*- C++ -*----------------------------------*\
| =========                 |                                                 |
| \\      /  F ield         | OpenFOAM: The Open Source CFD Toolbox           |
|  \\    /   O peration     | Version:  2.3.0                                 |
|   \\  /    A nd           | Web:      www.OpenFOAM.org                      |
|    \\/     M anipulation  |                                                 |
\*---------------------------------------------------------------------------*/
FoamFile
{
    version     2.0;
    format      ascii;
    class       volScalarField;
    location    "3.2";
    object      T;
}
// * * * * * * * * * * * * * * * * * * * * * * * * * * * * * * * * * * * * * //

dimensions      [0 0 0 1 0 0 0];

internalField   nonuniform List<scalar> 
64
(
0.00515027
0.00515027
0.00515027
0.00515027
0.00520087
0.00520087
0.00520087
0.00520087
1.32951e-05
0.00509931
6.46628e-05
0.00514987
6.42551e-05
0.00509891
1.37028e-05
1.32951e-05
0.00509931
6.46628e-05
0.00514987
6.42551e-05
0.00509891
1.37028e-05
1.32951e-05
6.46628e-05
0.00509931
0.00514987
0.00509891
6.42551e-05
1.37028e-05
1.32951e-05
6.46628e-05
0.00509931
0.00514987
0.00509891
6.42551e-05
1.37028e-05
1.3335e-05
0.00514991
0.00514991
0.000115255
6.4295e-05
0.00509895
6.4295e-05
1.3335e-05
0.00514991
0.00514991
0.000115255
6.4295e-05
0.00509895
6.4295e-05
1.3335e-05
0.00514991
0.000115255
0.00514991
0.00509895
6.4295e-05
6.4295e-05
1.3335e-05
0.00514991
0.000115255
0.00514991
0.00509895
6.4295e-05
6.4295e-05
)
;

boundaryField
{
    walls
    {
        type            fixedGradient;
        gradient        uniform 10;
    }
    inlet
    {
        type            fixedValue;
        value           uniform 1;
    }
    outlet
    {
        type            fixedGradient;
        gradient        uniform 10;
    }
}


// ************************************************************************* //
