/*--------------------------------*- C++ -*----------------------------------*\
| =========                 |                                                 |
| \\      /  F ield         | OpenFOAM: The Open Source CFD Toolbox           |
|  \\    /   O peration     | Version:  2.3.0                                 |
|   \\  /    A nd           | Web:      www.OpenFOAM.org                      |
|    \\/     M anipulation  |                                                 |
\*---------------------------------------------------------------------------*/
FoamFile
{
    version     2.0;
    format      ascii;
    class       volScalarField;
    location    "6.8";
    object      gradTz;
}
// * * * * * * * * * * * * * * * * * * * * * * * * * * * * * * * * * * * * * //

dimensions      [0 -1 0 1 0 0 0];

internalField   nonuniform List<scalar> 
64
(
-0.039562
-0.039562
-0.039562
-0.039562
5
5
5
5
-1.65719e-08
-0.0395664
-0.0399944
-1.64772e-08
-1.6571e-08
-1.64781e-08
-0.0399987
-1.65719e-08
-0.0395664
-0.0399944
-1.64772e-08
-1.6571e-08
-1.64781e-08
-0.0399987
-1.65719e-08
-0.0399944
-0.0395664
-1.64772e-08
-1.64781e-08
-1.6571e-08
-0.0399987
-1.65719e-08
-0.0399944
-0.0395664
-1.64772e-08
-1.64781e-08
-1.6571e-08
-0.0399987
2.172e-06
2.172e-06
5
5
2.172e-06
2.172e-06
5
2.172e-06
2.172e-06
5
5
2.172e-06
2.172e-06
5
2.172e-06
2.172e-06
5
5
2.172e-06
2.172e-06
5
2.172e-06
2.172e-06
5
5
2.172e-06
2.172e-06
5
)
;

boundaryField
{
    walls
    {
        type            calculated;
        value           nonuniform List<scalar> 
64
(
-0.039562
-0.039562
-0.039562
-0.039562
5
5
-0.039562
5
5
-0.039562
-0.039562
5
5
-0.039562
5
5
-1.64772e-08
-1.64781e-08
-0.0395664
-1.64772e-08
-1.6571e-08
-0.0399944
-0.0399944
-1.6571e-08
-1.64772e-08
-0.0395664
-1.64781e-08
-1.64772e-08
5
2.172e-06
2.172e-06
2.172e-06
2.172e-06
5
-0.0395664
-1.64781e-08
-1.64772e-08
5
2.172e-06
2.172e-06
2.172e-06
2.172e-06
5
-0.0399944
-1.6571e-08
-1.64772e-08
-1.64772e-08
-1.6571e-08
-0.0399944
5
2.172e-06
2.172e-06
2.172e-06
2.172e-06
5
-1.64772e-08
-1.64781e-08
-0.0395664
5
2.172e-06
2.172e-06
2.172e-06
2.172e-06
5
)
;
    }
    inlet
    {
        type            calculated;
        value           nonuniform List<scalar> 
16
(
-0.079124
-0.079124
-0.079124
-0.079124
-0.0799887
-0.0799974
-0.0791327
-0.0791327
-0.0799974
-0.0799887
-0.0799887
-0.0799974
-0.0791327
-0.0791327
-0.0799974
-0.0799887
)
;
    }
    outlet
    {
        type            calculated;
        value           uniform 10;
    }
}


// ************************************************************************* //
