/*--------------------------------*- C++ -*----------------------------------*\
| =========                 |                                                 |
| \\      /  F ield         | OpenFOAM: The Open Source CFD Toolbox           |
|  \\    /   O peration     | Version:  2.3.0                                 |
|   \\  /    A nd           | Web:      www.OpenFOAM.org                      |
|    \\/     M anipulation  |                                                 |
\*---------------------------------------------------------------------------*/
FoamFile
{
    version     2.0;
    format      ascii;
    class       volScalarField;
    location    "6.8";
    object      T;
}
// * * * * * * * * * * * * * * * * * * * * * * * * * * * * * * * * * * * * * //

dimensions      [0 0 0 1 0 0 0];

internalField   nonuniform List<scalar> 
64
(
0.01095
0.01095
0.01095
0.01095
0.0110577
0.0110577
0.0110577
0.0110577
3.16199e-05
0.0108414
0.000141048
0.0109491
0.00014018
0.0108406
3.24884e-05
3.16199e-05
0.0108414
0.000141048
0.0109491
0.00014018
0.0108406
3.24884e-05
3.16199e-05
0.000141048
0.0108414
0.0109491
0.0108406
0.00014018
3.24884e-05
3.16199e-05
0.000141048
0.0108414
0.0109491
0.0108406
0.00014018
3.24884e-05
3.16598e-05
0.0109492
0.0109492
0.00024878
0.00014022
0.0108406
0.00014022
3.16598e-05
0.0109492
0.0109492
0.00024878
0.00014022
0.0108406
0.00014022
3.16598e-05
0.0109492
0.00024878
0.0109492
0.0108406
0.00014022
0.00014022
3.16598e-05
0.0109492
0.00024878
0.0109492
0.0108406
0.00014022
0.00014022
)
;

boundaryField
{
    walls
    {
        type            fixedGradient;
        gradient        uniform 10;
    }
    inlet
    {
        type            fixedValue;
        value           uniform 1;
    }
    outlet
    {
        type            fixedGradient;
        gradient        uniform 10;
    }
}


// ************************************************************************* //
