/*--------------------------------*- C++ -*----------------------------------*\
| =========                 |                                                 |
| \\      /  F ield         | OpenFOAM: The Open Source CFD Toolbox           |
|  \\    /   O peration     | Version:  2.3.0                                 |
|   \\  /    A nd           | Web:      www.OpenFOAM.org                      |
|    \\/     M anipulation  |                                                 |
\*---------------------------------------------------------------------------*/
FoamFile
{
    version     2.0;
    format      ascii;
    class       volScalarField;
    location    "1.4";
    object      gradTz;
}
// * * * * * * * * * * * * * * * * * * * * * * * * * * * * * * * * * * * * * //

dimensions      [0 -1 0 1 0 0 0];

internalField   nonuniform List<scalar> 
64
(
-0.0399102
-0.0399102
-0.0399102
-0.0399102
5
5
5
5
-2.74875e-09
-0.0399111
-0.0399987
-2.74477e-09
-2.74871e-09
-2.74481e-09
-0.0399996
-2.74875e-09
-0.0399111
-0.0399987
-2.74477e-09
-2.74871e-09
-2.74481e-09
-0.0399996
-2.74875e-09
-0.0399987
-0.0399111
-2.74477e-09
-2.74481e-09
-2.74871e-09
-0.0399996
-2.74875e-09
-0.0399987
-0.0399111
-2.74477e-09
-2.74481e-09
-2.74871e-09
-0.0399996
4.43997e-07
4.43997e-07
5
5
4.43997e-07
4.43997e-07
5
4.43997e-07
4.43997e-07
5
5
4.43997e-07
4.43997e-07
5
4.43997e-07
4.43997e-07
5
5
4.43997e-07
4.43997e-07
5
4.43997e-07
4.43997e-07
5
5
4.43997e-07
4.43997e-07
5
)
;

boundaryField
{
    walls
    {
        type            calculated;
        value           nonuniform List<scalar> 
64
(
-0.0399102
-0.0399102
-0.0399102
-0.0399102
5
5
-0.0399102
5
5
-0.0399102
-0.0399102
5
5
-0.0399102
5
5
-2.74477e-09
-2.74481e-09
-0.0399111
-2.74477e-09
-2.74871e-09
-0.0399987
-0.0399987
-2.74871e-09
-2.74477e-09
-0.0399111
-2.74481e-09
-2.74477e-09
5
4.43997e-07
4.43997e-07
4.43997e-07
4.43997e-07
5
-0.0399111
-2.74481e-09
-2.74477e-09
5
4.43997e-07
4.43997e-07
4.43997e-07
4.43997e-07
5
-0.0399987
-2.74871e-09
-2.74477e-09
-2.74477e-09
-2.74871e-09
-0.0399987
5
4.43997e-07
4.43997e-07
4.43997e-07
4.43997e-07
5
-2.74477e-09
-2.74481e-09
-0.0399111
5
4.43997e-07
4.43997e-07
4.43997e-07
4.43997e-07
5
)
;
    }
    inlet
    {
        type            calculated;
        value           nonuniform List<scalar> 
16
(
-0.0798204
-0.0798204
-0.0798204
-0.0798204
-0.0799975
-0.0799993
-0.0798221
-0.0798221
-0.0799993
-0.0799975
-0.0799975
-0.0799993
-0.0798221
-0.0798221
-0.0799993
-0.0799975
)
;
    }
    outlet
    {
        type            calculated;
        value           uniform 10;
    }
}


// ************************************************************************* //
