/*--------------------------------*- C++ -*----------------------------------*\
| =========                 |                                                 |
| \\      /  F ield         | OpenFOAM: The Open Source CFD Toolbox           |
|  \\    /   O peration     | Version:  2.3.0                                 |
|   \\  /    A nd           | Web:      www.OpenFOAM.org                      |
|    \\/     M anipulation  |                                                 |
\*---------------------------------------------------------------------------*/
FoamFile
{
    version     2.0;
    format      ascii;
    class       volScalarField;
    location    "2.1";
    object      gradTz;
}
// * * * * * * * * * * * * * * * * * * * * * * * * * * * * * * * * * * * * * //

dimensions      [0 -1 0 1 0 0 0];

internalField   nonuniform List<scalar> 
64
(
-0.039865
-0.039865
-0.039865
-0.039865
5
5
5
5
-4.5407e-09
-0.0398663
-0.0399982
-4.53171e-09
-4.54061e-09
-4.53179e-09
-0.0399996
-4.5407e-09
-0.0398663
-0.0399982
-4.53171e-09
-4.54061e-09
-4.53179e-09
-0.0399996
-4.5407e-09
-0.0399982
-0.0398663
-4.53171e-09
-4.53179e-09
-4.54061e-09
-0.0399996
-4.5407e-09
-0.0399982
-0.0398663
-4.53171e-09
-4.53179e-09
-4.54061e-09
-0.0399996
6.67997e-07
6.67997e-07
5
5
6.67997e-07
6.67997e-07
5
6.67997e-07
6.67997e-07
5
5
6.67997e-07
6.67997e-07
5
6.67997e-07
6.67997e-07
5
5
6.67997e-07
6.67997e-07
5
6.67997e-07
6.67997e-07
5
5
6.67997e-07
6.67997e-07
5
)
;

boundaryField
{
    walls
    {
        type            calculated;
        value           nonuniform List<scalar> 
64
(
-0.039865
-0.039865
-0.039865
-0.039865
5
5
-0.039865
5
5
-0.039865
-0.039865
5
5
-0.039865
5
5
-4.53171e-09
-4.53179e-09
-0.0398663
-4.53171e-09
-4.54061e-09
-0.0399982
-0.0399982
-4.54061e-09
-4.53171e-09
-0.0398663
-4.53179e-09
-4.53171e-09
5
6.67997e-07
6.67997e-07
6.67997e-07
6.67997e-07
5
-0.0398663
-4.53179e-09
-4.53171e-09
5
6.67997e-07
6.67997e-07
6.67997e-07
6.67997e-07
5
-0.0399982
-4.54061e-09
-4.53171e-09
-4.53171e-09
-4.54061e-09
-0.0399982
5
6.67997e-07
6.67997e-07
6.67997e-07
6.67997e-07
5
-4.53171e-09
-4.53179e-09
-0.0398663
5
6.67997e-07
6.67997e-07
6.67997e-07
6.67997e-07
5
)
;
    }
    inlet
    {
        type            calculated;
        value           nonuniform List<scalar> 
16
(
-0.07973
-0.07973
-0.07973
-0.07973
-0.0799965
-0.0799992
-0.0797326
-0.0797326
-0.0799992
-0.0799965
-0.0799965
-0.0799992
-0.0797326
-0.0797326
-0.0799992
-0.0799965
)
;
    }
    outlet
    {
        type            calculated;
        value           uniform 10;
    }
}


// ************************************************************************* //
