/*--------------------------------*- C++ -*----------------------------------*\
| =========                 |                                                 |
| \\      /  F ield         | OpenFOAM: The Open Source CFD Toolbox           |
|  \\    /   O peration     | Version:  2.3.0                                 |
|   \\  /    A nd           | Web:      www.OpenFOAM.org                      |
|    \\/     M anipulation  |                                                 |
\*---------------------------------------------------------------------------*/
FoamFile
{
    version     2.0;
    format      ascii;
    class       volScalarField;
    location    "2.1";
    object      T;
}
// * * * * * * * * * * * * * * * * * * * * * * * * * * * * * * * * * * * * * //

dimensions      [0 0 0 1 0 0 0];

internalField   nonuniform List<scalar> 
64
(
0.0033755
0.0033755
0.0033755
0.0033755
0.00340863
0.00340863
0.00340863
0.00340863
1.03293e-05
0.00334214
4.39562e-05
0.00337523
4.36893e-05
0.00334187
1.05962e-05
1.03293e-05
0.00334214
4.39562e-05
0.00337523
4.36893e-05
0.00334187
1.05962e-05
1.03293e-05
4.39562e-05
0.00334214
0.00337523
0.00334187
4.36893e-05
1.05962e-05
1.03293e-05
4.39562e-05
0.00334214
0.00337523
0.00334187
4.36893e-05
1.05962e-05
1.03692e-05
0.00337527
0.00337527
7.70892e-05
4.37292e-05
0.00334191
4.37292e-05
1.03692e-05
0.00337527
0.00337527
7.70892e-05
4.37292e-05
0.00334191
4.37292e-05
1.03692e-05
0.00337527
7.70892e-05
0.00337527
0.00334191
4.37292e-05
4.37292e-05
1.03692e-05
0.00337527
7.70892e-05
0.00337527
0.00334191
4.37292e-05
4.37292e-05
)
;

boundaryField
{
    walls
    {
        type            fixedGradient;
        gradient        uniform 10;
    }
    inlet
    {
        type            fixedValue;
        value           uniform 1;
    }
    outlet
    {
        type            fixedGradient;
        gradient        uniform 10;
    }
}


// ************************************************************************* //
