/*--------------------------------*- C++ -*----------------------------------*\
| =========                 |                                                 |
| \\      /  F ield         | OpenFOAM: The Open Source CFD Toolbox           |
|  \\    /   O peration     | Version:  2.3.0                                 |
|   \\  /    A nd           | Web:      www.OpenFOAM.org                      |
|    \\/     M anipulation  |                                                 |
\*---------------------------------------------------------------------------*/
FoamFile
{
    version     2.0;
    format      ascii;
    class       volScalarField;
    location    "9.5";
    object      T;
}
// * * * * * * * * * * * * * * * * * * * * * * * * * * * * * * * * * * * * * //

dimensions      [0 0 0 1 0 0 0];

internalField   nonuniform List<scalar> 
64
(
0.0152912
0.0152912
0.0152912
0.0152912
0.0154418
0.0154418
0.0154418
0.0154418
5.40006e-05
0.0151394
0.000206974
0.01529
0.00020576
0.0151382
5.52146e-05
5.40006e-05
0.0151394
0.000206974
0.01529
0.00020576
0.0151382
5.52146e-05
5.40006e-05
0.000206974
0.0151394
0.01529
0.0151382
0.00020576
5.52146e-05
5.40006e-05
0.000206974
0.0151394
0.01529
0.0151382
0.00020576
5.52146e-05
5.40405e-05
0.01529
0.01529
0.00035756
0.0002058
0.0151382
0.0002058
5.40405e-05
0.01529
0.01529
0.00035756
0.0002058
0.0151382
0.0002058
5.40405e-05
0.01529
0.00035756
0.01529
0.0151382
0.0002058
0.0002058
5.40405e-05
0.01529
0.00035756
0.01529
0.0151382
0.0002058
0.0002058
)
;

boundaryField
{
    walls
    {
        type            fixedGradient;
        gradient        uniform 10;
    }
    inlet
    {
        type            fixedValue;
        value           uniform 1;
    }
    outlet
    {
        type            fixedGradient;
        gradient        uniform 10;
    }
}


// ************************************************************************* //
