/*--------------------------------*- C++ -*----------------------------------*\
| =========                 |                                                 |
| \\      /  F ield         | OpenFOAM: The Open Source CFD Toolbox           |
|  \\    /   O peration     | Version:  2.3.0                                 |
|   \\  /    A nd           | Web:      www.OpenFOAM.org                      |
|    \\/     M anipulation  |                                                 |
\*---------------------------------------------------------------------------*/
FoamFile
{
    version     2.0;
    format      ascii;
    class       volScalarField;
    location    "0.7";
    object      T;
}
// * * * * * * * * * * * * * * * * * * * * * * * * * * * * * * * * * * * * * //

dimensions      [0 0 0 1 0 0 0];

internalField   nonuniform List<scalar> 
64
(
0.00111491
0.00111491
0.00111491
0.00111491
0.00112582
0.00112582
0.00112582
0.00112582
8.34213e-06
0.00110395
1.93898e-05
0.00111482
1.93021e-05
0.00110386
8.4298e-06
8.34213e-06
0.00110395
1.93898e-05
0.00111482
1.93021e-05
0.00110386
8.4298e-06
8.34213e-06
1.93898e-05
0.00110395
0.00111482
0.00110386
1.93021e-05
8.4298e-06
8.34213e-06
1.93898e-05
0.00110395
0.00111482
0.00110386
1.93021e-05
8.4298e-06
8.38197e-06
0.00111486
0.00111486
3.0302e-05
1.9342e-05
0.0011039
1.9342e-05
8.38197e-06
0.00111486
0.00111486
3.0302e-05
1.9342e-05
0.0011039
1.9342e-05
8.38197e-06
0.00111486
3.0302e-05
0.00111486
0.0011039
1.9342e-05
1.9342e-05
8.38197e-06
0.00111486
3.0302e-05
0.00111486
0.0011039
1.9342e-05
1.9342e-05
)
;

boundaryField
{
    walls
    {
        type            fixedGradient;
        gradient        uniform 10;
    }
    inlet
    {
        type            fixedValue;
        value           uniform 1;
    }
    outlet
    {
        type            fixedGradient;
        gradient        uniform 10;
    }
}


// ************************************************************************* //
