/*--------------------------------*- C++ -*----------------------------------*\
| =========                 |                                                 |
| \\      /  F ield         | OpenFOAM: The Open Source CFD Toolbox           |
|  \\    /   O peration     | Version:  2.3.0                                 |
|   \\  /    A nd           | Web:      www.OpenFOAM.org                      |
|    \\/     M anipulation  |                                                 |
\*---------------------------------------------------------------------------*/
FoamFile
{
    version     2.0;
    format      ascii;
    class       volScalarField;
    location    "6.2";
    object      gradTz;
}
// * * * * * * * * * * * * * * * * * * * * * * * * * * * * * * * * * * * * * //

dimensions      [0 -1 0 1 0 0 0];

internalField   nonuniform List<scalar> 
64
(
-0.0396006
-0.0396006
-0.0396006
-0.0396006
5
5
5
5
-1.50361e-08
-0.0396046
-0.0399949
-1.49573e-08
-1.50353e-08
-1.49581e-08
-0.0399989
-1.50361e-08
-0.0396046
-0.0399949
-1.49573e-08
-1.50353e-08
-1.49581e-08
-0.0399989
-1.50361e-08
-0.0399949
-0.0396046
-1.49573e-08
-1.49581e-08
-1.50353e-08
-0.0399989
-1.50361e-08
-0.0399949
-0.0396046
-1.49573e-08
-1.49581e-08
-1.50353e-08
-0.0399989
1.98e-06
1.98e-06
5
5
1.98e-06
1.98e-06
5
1.98e-06
1.98e-06
5
5
1.98e-06
1.98e-06
5
1.98e-06
1.98e-06
5
5
1.98e-06
1.98e-06
5
1.98e-06
1.98e-06
5
5
1.98e-06
1.98e-06
5
)
;

boundaryField
{
    walls
    {
        type            calculated;
        value           nonuniform List<scalar> 
64
(
-0.0396006
-0.0396006
-0.0396006
-0.0396006
5
5
-0.0396006
5
5
-0.0396006
-0.0396006
5
5
-0.0396006
5
5
-1.49573e-08
-1.49581e-08
-0.0396046
-1.49573e-08
-1.50353e-08
-0.0399949
-0.0399949
-1.50353e-08
-1.49573e-08
-0.0396046
-1.49581e-08
-1.49573e-08
5
1.98e-06
1.98e-06
1.98e-06
1.98e-06
5
-0.0396046
-1.49581e-08
-1.49573e-08
5
1.98e-06
1.98e-06
1.98e-06
1.98e-06
5
-0.0399949
-1.50353e-08
-1.49573e-08
-1.49573e-08
-1.50353e-08
-0.0399949
5
1.98e-06
1.98e-06
1.98e-06
1.98e-06
5
-1.49573e-08
-1.49581e-08
-0.0396046
5
1.98e-06
1.98e-06
1.98e-06
1.98e-06
5
)
;
    }
    inlet
    {
        type            calculated;
        value           nonuniform List<scalar> 
16
(
-0.0792013
-0.0792013
-0.0792013
-0.0792013
-0.0799898
-0.0799977
-0.0792092
-0.0792092
-0.0799977
-0.0799898
-0.0799898
-0.0799977
-0.0792092
-0.0792092
-0.0799977
-0.0799898
)
;
    }
    outlet
    {
        type            calculated;
        value           uniform 10;
    }
}


// ************************************************************************* //
