/*--------------------------------*- C++ -*----------------------------------*\
| =========                 |                                                 |
| \\      /  F ield         | OpenFOAM: The Open Source CFD Toolbox           |
|  \\    /   O peration     | Version:  2.3.0                                 |
|   \\  /    A nd           | Web:      www.OpenFOAM.org                      |
|    \\/     M anipulation  |                                                 |
\*---------------------------------------------------------------------------*/
FoamFile
{
    version     2.0;
    format      ascii;
    class       volScalarField;
    location    "6.2";
    object      T;
}
// * * * * * * * * * * * * * * * * * * * * * * * * * * * * * * * * * * * * * //

dimensions      [0 0 0 1 0 0 0];

internalField   nonuniform List<scalar> 
64
(
0.0099843
0.0099843
0.0099843
0.0099843
0.0100825
0.0100825
0.0100825
0.0100825
2.76505e-05
0.00988534
0.000127402
0.00998351
0.00012661
0.00988455
2.84422e-05
2.76505e-05
0.00988534
0.000127402
0.00998351
0.00012661
0.00988455
2.84422e-05
2.76505e-05
0.000127402
0.00988534
0.00998351
0.00988455
0.00012661
2.84422e-05
2.76505e-05
0.000127402
0.00988534
0.00998351
0.00988455
0.00012661
2.84422e-05
2.76904e-05
0.00998355
0.00998355
0.00022561
0.00012665
0.00988459
0.00012665
2.76904e-05
0.00998355
0.00998355
0.00022561
0.00012665
0.00988459
0.00012665
2.76904e-05
0.00998355
0.00022561
0.00998355
0.00988459
0.00012665
0.00012665
2.76904e-05
0.00998355
0.00022561
0.00998355
0.00988459
0.00012665
0.00012665
)
;

boundaryField
{
    walls
    {
        type            fixedGradient;
        gradient        uniform 10;
    }
    inlet
    {
        type            fixedValue;
        value           uniform 1;
    }
    outlet
    {
        type            fixedGradient;
        gradient        uniform 10;
    }
}


// ************************************************************************* //
