/*--------------------------------*- C++ -*----------------------------------*\
| =========                 |                                                 |
| \\      /  F ield         | OpenFOAM: The Open Source CFD Toolbox           |
|  \\    /   O peration     | Version:  2.3.0                                 |
|   \\  /    A nd           | Web:      www.OpenFOAM.org                      |
|    \\/     M anipulation  |                                                 |
\*---------------------------------------------------------------------------*/
FoamFile
{
    version     2.0;
    format      ascii;
    class       volScalarField;
    location    "6.9";
    object      gradTz;
}
// * * * * * * * * * * * * * * * * * * * * * * * * * * * * * * * * * * * * * //

dimensions      [0 -1 0 1 0 0 0];

internalField   nonuniform List<scalar> 
64
(
-0.0395556
-0.0395556
-0.0395556
-0.0395556
5
5
5
5
-1.68279e-08
-0.03956
-0.0399943
-1.67303e-08
-1.68269e-08
-1.67313e-08
-0.0399987
-1.68279e-08
-0.03956
-0.0399943
-1.67303e-08
-1.68269e-08
-1.67313e-08
-0.0399987
-1.68279e-08
-0.0399943
-0.03956
-1.67303e-08
-1.67313e-08
-1.68269e-08
-0.0399987
-1.68279e-08
-0.0399943
-0.03956
-1.67303e-08
-1.67313e-08
-1.68269e-08
-0.0399987
2.204e-06
2.204e-06
5
5
2.204e-06
2.204e-06
5
2.204e-06
2.204e-06
5
5
2.204e-06
2.204e-06
5
2.204e-06
2.204e-06
5
5
2.204e-06
2.204e-06
5
2.204e-06
2.204e-06
5
5
2.204e-06
2.204e-06
5
)
;

boundaryField
{
    walls
    {
        type            calculated;
        value           nonuniform List<scalar> 
64
(
-0.0395556
-0.0395556
-0.0395556
-0.0395556
5
5
-0.0395556
5
5
-0.0395556
-0.0395556
5
5
-0.0395556
5
5
-1.67303e-08
-1.67313e-08
-0.03956
-1.67303e-08
-1.68269e-08
-0.0399943
-0.0399943
-1.68269e-08
-1.67303e-08
-0.03956
-1.67313e-08
-1.67303e-08
5
2.204e-06
2.204e-06
2.204e-06
2.204e-06
5
-0.03956
-1.67313e-08
-1.67303e-08
5
2.204e-06
2.204e-06
2.204e-06
2.204e-06
5
-0.0399943
-1.68269e-08
-1.67303e-08
-1.67303e-08
-1.68269e-08
-0.0399943
5
2.204e-06
2.204e-06
2.204e-06
2.204e-06
5
-1.67303e-08
-1.67313e-08
-0.03956
5
2.204e-06
2.204e-06
2.204e-06
2.204e-06
5
)
;
    }
    inlet
    {
        type            calculated;
        value           nonuniform List<scalar> 
16
(
-0.0791111
-0.0791111
-0.0791111
-0.0791111
-0.0799885
-0.0799973
-0.0791199
-0.0791199
-0.0799973
-0.0799885
-0.0799885
-0.0799973
-0.0791199
-0.0791199
-0.0799973
-0.0799885
)
;
    }
    outlet
    {
        type            calculated;
        value           uniform 10;
    }
}


// ************************************************************************* //
