/*--------------------------------*- C++ -*----------------------------------*\
| =========                 |                                                 |
| \\      /  F ield         | OpenFOAM: The Open Source CFD Toolbox           |
|  \\    /   O peration     | Version:  2.3.0                                 |
|   \\  /    A nd           | Web:      www.OpenFOAM.org                      |
|    \\/     M anipulation  |                                                 |
\*---------------------------------------------------------------------------*/
FoamFile
{
    version     2.0;
    format      ascii;
    class       volScalarField;
    location    "3.8";
    object      gradTz;
}
// * * * * * * * * * * * * * * * * * * * * * * * * * * * * * * * * * * * * * //

dimensions      [0 -1 0 1 0 0 0];

internalField   nonuniform List<scalar> 
64
(
-0.0397553
-0.0397553
-0.0397553
-0.0397553
5
5
5
5
-8.89252e-09
-0.0397577
-0.039997
-8.86295e-09
-8.89223e-09
-8.86324e-09
-0.0399994
-8.89252e-09
-0.0397577
-0.039997
-8.86295e-09
-8.89223e-09
-8.86324e-09
-0.0399994
-8.89253e-09
-0.039997
-0.0397577
-8.86295e-09
-8.86324e-09
-8.89223e-09
-0.0399994
-8.89253e-09
-0.039997
-0.0397577
-8.86295e-09
-8.86324e-09
-8.89223e-09
-0.0399994
1.212e-06
1.212e-06
5
5
1.212e-06
1.212e-06
5
1.212e-06
1.212e-06
5
5
1.212e-06
1.212e-06
5
1.212e-06
1.212e-06
5
5
1.212e-06
1.212e-06
5
1.212e-06
1.212e-06
5
5
1.212e-06
1.212e-06
5
)
;

boundaryField
{
    walls
    {
        type            calculated;
        value           nonuniform List<scalar> 
64
(
-0.0397553
-0.0397553
-0.0397553
-0.0397553
5
5
-0.0397553
5
5
-0.0397553
-0.0397553
5
5
-0.0397553
5
5
-8.86295e-09
-8.86324e-09
-0.0397577
-8.86295e-09
-8.89223e-09
-0.039997
-0.039997
-8.89223e-09
-8.86295e-09
-0.0397577
-8.86324e-09
-8.86295e-09
5
1.212e-06
1.212e-06
1.212e-06
1.212e-06
5
-0.0397577
-8.86324e-09
-8.86295e-09
5
1.212e-06
1.212e-06
1.212e-06
1.212e-06
5
-0.039997
-8.89223e-09
-8.86295e-09
-8.86295e-09
-8.89223e-09
-0.039997
5
1.212e-06
1.212e-06
1.212e-06
1.212e-06
5
-8.86295e-09
-8.86324e-09
-0.0397577
5
1.212e-06
1.212e-06
1.212e-06
1.212e-06
5
)
;
    }
    inlet
    {
        type            calculated;
        value           nonuniform List<scalar> 
16
(
-0.0795106
-0.0795106
-0.0795106
-0.0795106
-0.0799939
-0.0799987
-0.0795154
-0.0795154
-0.0799987
-0.0799939
-0.0799939
-0.0799987
-0.0795154
-0.0795154
-0.0799987
-0.0799939
)
;
    }
    outlet
    {
        type            calculated;
        value           uniform 10;
    }
}


// ************************************************************************* //
