/*--------------------------------*- C++ -*----------------------------------*\
| =========                 |                                                 |
| \\      /  F ield         | OpenFOAM: The Open Source CFD Toolbox           |
|  \\    /   O peration     | Version:  2.3.0                                 |
|   \\  /    A nd           | Web:      www.OpenFOAM.org                      |
|    \\/     M anipulation  |                                                 |
\*---------------------------------------------------------------------------*/
FoamFile
{
    version     2.0;
    format      ascii;
    class       volScalarField;
    location    "4.4";
    object      gradTz;
}
// * * * * * * * * * * * * * * * * * * * * * * * * * * * * * * * * * * * * * //

dimensions      [0 -1 0 1 0 0 0];

internalField   nonuniform List<scalar> 
64
(
-0.0397166
-0.0397166
-0.0397166
-0.0397166
5
5
5
5
-1.04284e-08
-0.0397194
-0.0399965
-1.03888e-08
-1.0428e-08
-1.03892e-08
-0.0399993
-1.04284e-08
-0.0397194
-0.0399965
-1.03888e-08
-1.0428e-08
-1.03892e-08
-0.0399993
-1.04284e-08
-0.0399965
-0.0397194
-1.03888e-08
-1.03892e-08
-1.0428e-08
-0.0399993
-1.04284e-08
-0.0399965
-0.0397194
-1.03888e-08
-1.03892e-08
-1.0428e-08
-0.0399993
1.404e-06
1.404e-06
5
5
1.404e-06
1.404e-06
5
1.404e-06
1.404e-06
5
5
1.404e-06
1.404e-06
5
1.404e-06
1.404e-06
5
5
1.404e-06
1.404e-06
5
1.404e-06
1.404e-06
5
5
1.404e-06
1.404e-06
5
)
;

boundaryField
{
    walls
    {
        type            calculated;
        value           nonuniform List<scalar> 
64
(
-0.0397166
-0.0397166
-0.0397166
-0.0397166
5
5
-0.0397166
5
5
-0.0397166
-0.0397166
5
5
-0.0397166
5
5
-1.03888e-08
-1.03892e-08
-0.0397194
-1.03888e-08
-1.0428e-08
-0.0399965
-0.0399965
-1.0428e-08
-1.03888e-08
-0.0397194
-1.03892e-08
-1.03888e-08
5
1.404e-06
1.404e-06
1.404e-06
1.404e-06
5
-0.0397194
-1.03892e-08
-1.03888e-08
5
1.404e-06
1.404e-06
1.404e-06
1.404e-06
5
-0.0399965
-1.0428e-08
-1.03888e-08
-1.03888e-08
-1.0428e-08
-0.0399965
5
1.404e-06
1.404e-06
1.404e-06
1.404e-06
5
-1.03888e-08
-1.03892e-08
-0.0397194
5
1.404e-06
1.404e-06
1.404e-06
1.404e-06
5
)
;
    }
    inlet
    {
        type            calculated;
        value           nonuniform List<scalar> 
16
(
-0.0794332
-0.0794332
-0.0794332
-0.0794332
-0.0799929
-0.0799985
-0.0794388
-0.0794388
-0.0799985
-0.0799929
-0.0799929
-0.0799985
-0.0794388
-0.0794388
-0.0799985
-0.0799929
)
;
    }
    outlet
    {
        type            calculated;
        value           uniform 10;
    }
}


// ************************************************************************* //
