/*--------------------------------*- C++ -*----------------------------------*\
| =========                 |                                                 |
| \\      /  F ield         | OpenFOAM: The Open Source CFD Toolbox           |
|  \\    /   O peration     | Version:  2.3.0                                 |
|   \\  /    A nd           | Web:      www.OpenFOAM.org                      |
|    \\/     M anipulation  |                                                 |
\*---------------------------------------------------------------------------*/
FoamFile
{
    version     2.0;
    format      ascii;
    class       volScalarField;
    location    "7.2";
    object      T;
}
// * * * * * * * * * * * * * * * * * * * * * * * * * * * * * * * * * * * * * //

dimensions      [0 0 0 1 0 0 0];

internalField   nonuniform List<scalar> 
64
(
0.0115936
0.0115936
0.0115936
0.0115936
0.0117077
0.0117077
0.0117077
0.0117077
3.44692e-05
0.0114786
0.000150349
0.0115927
0.000149429
0.0114777
3.53889e-05
3.44692e-05
0.0114786
0.000150349
0.0115927
0.000149429
0.0114777
3.53889e-05
3.44692e-05
0.000150349
0.0114786
0.0115927
0.0114777
0.000149429
3.53889e-05
3.44692e-05
0.000150349
0.0114786
0.0115927
0.0114777
0.000149429
3.53889e-05
3.45091e-05
0.0115927
0.0115927
0.000264429
0.000149469
0.0114778
0.000149469
3.45091e-05
0.0115927
0.0115927
0.000264429
0.000149469
0.0114778
0.000149469
3.45091e-05
0.0115927
0.000264429
0.0115927
0.0114778
0.000149469
0.000149469
3.45091e-05
0.0115927
0.000264429
0.0115927
0.0114778
0.000149469
0.000149469
)
;

boundaryField
{
    walls
    {
        type            fixedGradient;
        gradient        uniform 10;
    }
    inlet
    {
        type            fixedValue;
        value           uniform 1;
    }
    outlet
    {
        type            fixedGradient;
        gradient        uniform 10;
    }
}


// ************************************************************************* //
