/*--------------------------------*- C++ -*----------------------------------*\
| =========                 |                                                 |
| \\      /  F ield         | OpenFOAM: The Open Source CFD Toolbox           |
|  \\    /   O peration     | Version:  2.3.0                                 |
|   \\  /    A nd           | Web:      www.OpenFOAM.org                      |
|    \\/     M anipulation  |                                                 |
\*---------------------------------------------------------------------------*/
FoamFile
{
    version     2.0;
    format      ascii;
    class       volScalarField;
    location    "7.7";
    object      gradTz;
}
// * * * * * * * * * * * * * * * * * * * * * * * * * * * * * * * * * * * * * //

dimensions      [0 -1 0 1 0 0 0];

internalField   nonuniform List<scalar> 
64
(
-0.0395041
-0.0395041
-0.0395041
-0.0395041
5
5
5
5
-1.88756e-08
-0.039509
-0.0399935
-1.87542e-08
-1.88744e-08
-1.87554e-08
-0.0399984
-1.88756e-08
-0.039509
-0.0399935
-1.87542e-08
-1.88744e-08
-1.87554e-08
-0.0399984
-1.88756e-08
-0.0399935
-0.039509
-1.87542e-08
-1.87554e-08
-1.88744e-08
-0.0399984
-1.88756e-08
-0.0399935
-0.039509
-1.87542e-08
-1.87554e-08
-1.88744e-08
-0.0399984
2.46e-06
2.46e-06
5
5
2.46e-06
2.46e-06
5
2.46e-06
2.46e-06
5
5
2.46e-06
2.46e-06
5
2.46e-06
2.46e-06
5
5
2.46e-06
2.46e-06
5
2.46e-06
2.46e-06
5
5
2.46e-06
2.46e-06
5
)
;

boundaryField
{
    walls
    {
        type            calculated;
        value           nonuniform List<scalar> 
64
(
-0.0395041
-0.0395041
-0.0395041
-0.0395041
5
5
-0.0395041
5
5
-0.0395041
-0.0395041
5
5
-0.0395041
5
5
-1.87542e-08
-1.87554e-08
-0.039509
-1.87542e-08
-1.88744e-08
-0.0399935
-0.0399935
-1.88744e-08
-1.87542e-08
-0.039509
-1.87554e-08
-1.87542e-08
5
2.46e-06
2.46e-06
2.46e-06
2.46e-06
5
-0.039509
-1.87554e-08
-1.87542e-08
5
2.46e-06
2.46e-06
2.46e-06
2.46e-06
5
-0.0399935
-1.88744e-08
-1.87542e-08
-1.87542e-08
-1.88744e-08
-0.0399935
5
2.46e-06
2.46e-06
2.46e-06
2.46e-06
5
-1.87542e-08
-1.87554e-08
-0.039509
5
2.46e-06
2.46e-06
2.46e-06
2.46e-06
5
)
;
    }
    inlet
    {
        type            calculated;
        value           nonuniform List<scalar> 
16
(
-0.0790082
-0.0790082
-0.0790082
-0.0790082
-0.079987
-0.0799969
-0.079018
-0.079018
-0.0799969
-0.079987
-0.079987
-0.0799969
-0.079018
-0.079018
-0.0799969
-0.079987
)
;
    }
    outlet
    {
        type            calculated;
        value           uniform 10;
    }
}


// ************************************************************************* //
