/*--------------------------------*- C++ -*----------------------------------*\
| =========                 |                                                 |
| \\      /  F ield         | OpenFOAM: The Open Source CFD Toolbox           |
|  \\    /   O peration     | Version:  2.3.0                                 |
|   \\  /    A nd           | Web:      www.OpenFOAM.org                      |
|    \\/     M anipulation  |                                                 |
\*---------------------------------------------------------------------------*/
FoamFile
{
    version     2.0;
    format      ascii;
    class       volScalarField;
    location    "8.2";
    object      gradTz;
}
// * * * * * * * * * * * * * * * * * * * * * * * * * * * * * * * * * * * * * //

dimensions      [0 -1 0 1 0 0 0];

internalField   nonuniform List<scalar> 
64
(
-0.0394719
-0.0394719
-0.0394719
-0.0394719
5
5
5
5
-2.01554e-08
-0.0394772
-0.039993
-2.00177e-08
-2.01541e-08
-2.00191e-08
-0.0399983
-2.01554e-08
-0.0394772
-0.039993
-2.00177e-08
-2.01541e-08
-2.00191e-08
-0.0399983
-2.01555e-08
-0.039993
-0.0394772
-2.00177e-08
-2.00191e-08
-2.01541e-08
-0.0399983
-2.01555e-08
-0.039993
-0.0394772
-2.00177e-08
-2.00191e-08
-2.01541e-08
-0.0399983
2.62e-06
2.62e-06
5
5
2.62e-06
2.62e-06
5
2.62e-06
2.62e-06
5
5
2.62e-06
2.62e-06
5
2.62e-06
2.62e-06
5
5
2.62e-06
2.62e-06
5
2.62e-06
2.62e-06
5
5
2.62e-06
2.62e-06
5
)
;

boundaryField
{
    walls
    {
        type            calculated;
        value           nonuniform List<scalar> 
64
(
-0.0394719
-0.0394719
-0.0394719
-0.0394719
5
5
-0.0394719
5
5
-0.0394719
-0.0394719
5
5
-0.0394719
5
5
-2.00177e-08
-2.00191e-08
-0.0394772
-2.00177e-08
-2.01541e-08
-0.039993
-0.039993
-2.01541e-08
-2.00177e-08
-0.0394772
-2.00191e-08
-2.00177e-08
5
2.62e-06
2.62e-06
2.62e-06
2.62e-06
5
-0.0394772
-2.00191e-08
-2.00177e-08
5
2.62e-06
2.62e-06
2.62e-06
2.62e-06
5
-0.039993
-2.01541e-08
-2.00177e-08
-2.00177e-08
-2.01541e-08
-0.039993
5
2.62e-06
2.62e-06
2.62e-06
2.62e-06
5
-2.00177e-08
-2.00191e-08
-0.0394772
5
2.62e-06
2.62e-06
2.62e-06
2.62e-06
5
)
;
    }
    inlet
    {
        type            calculated;
        value           nonuniform List<scalar> 
16
(
-0.0789438
-0.0789438
-0.0789438
-0.0789438
-0.0799861
-0.0799965
-0.0789543
-0.0789543
-0.0799965
-0.0799861
-0.0799861
-0.0799965
-0.0789543
-0.0789543
-0.0799965
-0.0799861
)
;
    }
    outlet
    {
        type            calculated;
        value           uniform 10;
    }
}


// ************************************************************************* //
