/*--------------------------------*- C++ -*----------------------------------*\
| =========                 |                                                 |
| \\      /  F ield         | OpenFOAM: The Open Source CFD Toolbox           |
|  \\    /   O peration     | Version:  2.3.0                                 |
|   \\  /    A nd           | Web:      www.OpenFOAM.org                      |
|    \\/     M anipulation  |                                                 |
\*---------------------------------------------------------------------------*/
FoamFile
{
    version     2.0;
    format      ascii;
    class       volScalarField;
    location    "3";
    object      gradTz;
}
// * * * * * * * * * * * * * * * * * * * * * * * * * * * * * * * * * * * * * //

dimensions      [0 -1 0 1 0 0 0];

internalField   nonuniform List<scalar> 
64
(
-0.0398069
-0.0398069
-0.0398069
-0.0398069
5
5
5
5
-6.84462e-09
-0.0398088
-0.0399976
-6.82621e-09
-6.84444e-09
-6.82639e-09
-0.0399995
-6.84462e-09
-0.0398088
-0.0399976
-6.82621e-09
-6.84444e-09
-6.82639e-09
-0.0399995
-6.84462e-09
-0.0399976
-0.0398088
-6.82621e-09
-6.82639e-09
-6.84444e-09
-0.0399995
-6.84462e-09
-0.0399976
-0.0398088
-6.82621e-09
-6.82639e-09
-6.84444e-09
-0.0399995
9.55997e-07
9.55997e-07
5
5
9.55997e-07
9.55997e-07
5
9.55997e-07
9.55997e-07
5
5
9.55997e-07
9.55997e-07
5
9.55997e-07
9.55997e-07
5
5
9.55997e-07
9.55997e-07
5
9.55997e-07
9.55997e-07
5
5
9.55997e-07
9.55997e-07
5
)
;

boundaryField
{
    walls
    {
        type            calculated;
        value           nonuniform List<scalar> 
64
(
-0.0398069
-0.0398069
-0.0398069
-0.0398069
5
5
-0.0398069
5
5
-0.0398069
-0.0398069
5
5
-0.0398069
5
5
-6.82621e-09
-6.82639e-09
-0.0398088
-6.82621e-09
-6.84444e-09
-0.0399976
-0.0399976
-6.84444e-09
-6.82621e-09
-0.0398088
-6.82639e-09
-6.82621e-09
5
9.55997e-07
9.55997e-07
9.55997e-07
9.55997e-07
5
-0.0398088
-6.82639e-09
-6.82621e-09
5
9.55997e-07
9.55997e-07
9.55997e-07
9.55997e-07
5
-0.0399976
-6.84444e-09
-6.82621e-09
-6.82621e-09
-6.84444e-09
-0.0399976
5
9.55997e-07
9.55997e-07
9.55997e-07
9.55997e-07
5
-6.82621e-09
-6.82639e-09
-0.0398088
5
9.55997e-07
9.55997e-07
9.55997e-07
9.55997e-07
5
)
;
    }
    inlet
    {
        type            calculated;
        value           nonuniform List<scalar> 
16
(
-0.0796138
-0.0796138
-0.0796138
-0.0796138
-0.0799951
-0.079999
-0.0796176
-0.0796176
-0.079999
-0.0799951
-0.0799951
-0.079999
-0.0796176
-0.0796176
-0.079999
-0.0799951
)
;
    }
    outlet
    {
        type            calculated;
        value           uniform 10;
    }
}


// ************************************************************************* //
