/*--------------------------------*- C++ -*----------------------------------*\
| =========                 |                                                 |
| \\      /  F ield         | OpenFOAM: The Open Source CFD Toolbox           |
|  \\    /   O peration     | Version:  2.3.0                                 |
|   \\  /    A nd           | Web:      www.OpenFOAM.org                      |
|    \\/     M anipulation  |                                                 |
\*---------------------------------------------------------------------------*/
FoamFile
{
    version     2.0;
    format      ascii;
    class       volScalarField;
    location    "3";
    object      T;
}
// * * * * * * * * * * * * * * * * * * * * * * * * * * * * * * * * * * * * * //

dimensions      [0 0 0 1 0 0 0];

internalField   nonuniform List<scalar> 
64
(
0.00482768
0.00482768
0.00482768
0.00482768
0.0048751
0.0048751
0.0048751
0.0048751
1.2664e-05
0.00477992
6.08061e-05
0.0048273
6.0424e-05
0.00477954
1.30461e-05
1.2664e-05
0.00477992
6.08061e-05
0.0048273
6.0424e-05
0.00477954
1.30461e-05
1.2664e-05
6.08061e-05
0.00477992
0.0048273
0.00477954
6.0424e-05
1.30461e-05
1.2664e-05
6.08061e-05
0.00477992
0.0048273
0.00477954
6.0424e-05
1.30461e-05
1.27039e-05
0.00482734
0.00482734
0.000108224
6.04639e-05
0.00477958
6.04639e-05
1.27039e-05
0.00482734
0.00482734
0.000108224
6.04639e-05
0.00477958
6.04639e-05
1.27039e-05
0.00482734
0.000108224
0.00482734
0.00477958
6.04639e-05
6.04639e-05
1.27039e-05
0.00482734
0.000108224
0.00482734
0.00477958
6.04639e-05
6.04639e-05
)
;

boundaryField
{
    walls
    {
        type            fixedGradient;
        gradient        uniform 10;
    }
    inlet
    {
        type            fixedValue;
        value           uniform 1;
    }
    outlet
    {
        type            fixedGradient;
        gradient        uniform 10;
    }
}


// ************************************************************************* //
