/*--------------------------------*- C++ -*----------------------------------*\
| =========                 |                                                 |
| \\      /  F ield         | OpenFOAM: The Open Source CFD Toolbox           |
|  \\    /   O peration     | Version:  2.3.0                                 |
|   \\  /    A nd           | Web:      www.OpenFOAM.org                      |
|    \\/     M anipulation  |                                                 |
\*---------------------------------------------------------------------------*/
FoamFile
{
    version     2.0;
    format      ascii;
    class       volScalarField;
    location    "3.3";
    object      gradTz;
}
// * * * * * * * * * * * * * * * * * * * * * * * * * * * * * * * * * * * * * //

dimensions      [0 -1 0 1 0 0 0];

internalField   nonuniform List<scalar> 
64
(
-0.0397875
-0.0397875
-0.0397875
-0.0397875
5
5
5
5
-7.61259e-09
-0.0397896
-0.0399973
-7.59029e-09
-7.61237e-09
-7.59052e-09
-0.0399994
-7.61259e-09
-0.0397896
-0.0399973
-7.59029e-09
-7.61237e-09
-7.59052e-09
-0.0399994
-7.61259e-09
-0.0399973
-0.0397896
-7.59029e-09
-7.59052e-09
-7.61237e-09
-0.0399994
-7.61259e-09
-0.0399973
-0.0397896
-7.59029e-09
-7.59052e-09
-7.61237e-09
-0.0399994
1.052e-06
1.052e-06
5
5
1.052e-06
1.052e-06
5
1.052e-06
1.052e-06
5
5
1.052e-06
1.052e-06
5
1.052e-06
1.052e-06
5
5
1.052e-06
1.052e-06
5
1.052e-06
1.052e-06
5
5
1.052e-06
1.052e-06
5
)
;

boundaryField
{
    walls
    {
        type            calculated;
        value           nonuniform List<scalar> 
64
(
-0.0397875
-0.0397875
-0.0397875
-0.0397875
5
5
-0.0397875
5
5
-0.0397875
-0.0397875
5
5
-0.0397875
5
5
-7.59029e-09
-7.59052e-09
-0.0397896
-7.59029e-09
-7.61237e-09
-0.0399973
-0.0399973
-7.61237e-09
-7.59029e-09
-0.0397896
-7.59052e-09
-7.59029e-09
5
1.052e-06
1.052e-06
1.052e-06
1.052e-06
5
-0.0397896
-7.59052e-09
-7.59029e-09
5
1.052e-06
1.052e-06
1.052e-06
1.052e-06
5
-0.0399973
-7.61237e-09
-7.59029e-09
-7.59029e-09
-7.61237e-09
-0.0399973
5
1.052e-06
1.052e-06
1.052e-06
1.052e-06
5
-7.59029e-09
-7.59052e-09
-0.0397896
5
1.052e-06
1.052e-06
1.052e-06
1.052e-06
5
)
;
    }
    inlet
    {
        type            calculated;
        value           nonuniform List<scalar> 
16
(
-0.0795751
-0.0795751
-0.0795751
-0.0795751
-0.0799947
-0.0799989
-0.0795793
-0.0795793
-0.0799989
-0.0799947
-0.0799947
-0.0799989
-0.0795793
-0.0795793
-0.0799989
-0.0799947
)
;
    }
    outlet
    {
        type            calculated;
        value           uniform 10;
    }
}


// ************************************************************************* //
