/*--------------------------------*- C++ -*----------------------------------*\
| =========                 |                                                 |
| \\      /  F ield         | OpenFOAM: The Open Source CFD Toolbox           |
|  \\    /   O peration     | Version:  2.3.0                                 |
|   \\  /    A nd           | Web:      www.OpenFOAM.org                      |
|    \\/     M anipulation  |                                                 |
\*---------------------------------------------------------------------------*/
FoamFile
{
    version     2.0;
    format      ascii;
    class       volScalarField;
    location    "3.3";
    object      T;
}
// * * * * * * * * * * * * * * * * * * * * * * * * * * * * * * * * * * * * * //

dimensions      [0 0 0 1 0 0 0];

internalField   nonuniform List<scalar> 
64
(
0.00531155
0.00531155
0.00531155
0.00531155
0.00536373
0.00536373
0.00536373
0.00536373
1.3626e-05
0.00525899
6.66064e-05
0.00531113
6.61859e-05
0.00525857
1.40464e-05
1.3626e-05
0.00525899
6.66064e-05
0.00531113
6.61859e-05
0.00525857
1.40464e-05
1.3626e-05
6.66064e-05
0.00525899
0.00531113
0.00525857
6.61859e-05
1.40464e-05
1.3626e-05
6.66064e-05
0.00525899
0.00531113
0.00525857
6.61859e-05
1.40464e-05
1.36658e-05
0.00531117
0.00531117
0.000118786
6.62258e-05
0.00525861
6.62258e-05
1.36658e-05
0.00531117
0.00531117
0.000118786
6.62258e-05
0.00525861
6.62258e-05
1.36658e-05
0.00531117
0.000118786
0.00531117
0.00525861
6.62258e-05
6.62258e-05
1.36658e-05
0.00531117
0.000118786
0.00531117
0.00525861
6.62258e-05
6.62258e-05
)
;

boundaryField
{
    walls
    {
        type            fixedGradient;
        gradient        uniform 10;
    }
    inlet
    {
        type            fixedValue;
        value           uniform 1;
    }
    outlet
    {
        type            fixedGradient;
        gradient        uniform 10;
    }
}


// ************************************************************************* //
