/*--------------------------------*- C++ -*----------------------------------*\
| =========                 |                                                 |
| \\      /  F ield         | OpenFOAM: The Open Source CFD Toolbox           |
|  \\    /   O peration     | Version:  2.3.0                                 |
|   \\  /    A nd           | Web:      www.OpenFOAM.org                      |
|    \\/     M anipulation  |                                                 |
\*---------------------------------------------------------------------------*/
FoamFile
{
    version     2.0;
    format      ascii;
    class       volScalarField;
    location    "2.8";
    object      T;
}
// * * * * * * * * * * * * * * * * * * * * * * * * * * * * * * * * * * * * * //

dimensions      [0 0 0 1 0 0 0];

internalField   nonuniform List<scalar> 
64
(
0.00450504
0.00450504
0.00450504
0.00450504
0.00454929
0.00454929
0.00454929
0.00454929
1.20738e-05
0.00446048
5.69902e-05
0.00450469
5.66338e-05
0.00446013
1.24303e-05
1.20738e-05
0.00446048
5.69902e-05
0.00450469
5.66338e-05
0.00446013
1.24303e-05
1.20738e-05
5.69902e-05
0.00446048
0.00450469
0.00446013
5.66338e-05
1.24303e-05
1.20738e-05
5.69902e-05
0.00446048
0.00450469
0.00446013
5.66338e-05
1.24303e-05
1.21136e-05
0.00450473
0.00450473
0.000101234
5.66736e-05
0.00446017
5.66736e-05
1.21136e-05
0.00450473
0.00450473
0.000101234
5.66736e-05
0.00446017
5.66736e-05
1.21136e-05
0.00450473
0.000101234
0.00450473
0.00446017
5.66736e-05
5.66736e-05
1.21136e-05
0.00450473
0.000101234
0.00450473
0.00446017
5.66736e-05
5.66736e-05
)
;

boundaryField
{
    walls
    {
        type            fixedGradient;
        gradient        uniform 10;
    }
    inlet
    {
        type            fixedValue;
        value           uniform 1;
    }
    outlet
    {
        type            fixedGradient;
        gradient        uniform 10;
    }
}


// ************************************************************************* //
