/*--------------------------------*- C++ -*----------------------------------*\
| =========                 |                                                 |
| \\      /  F ield         | OpenFOAM: The Open Source CFD Toolbox           |
|  \\    /   O peration     | Version:  2.3.0                                 |
|   \\  /    A nd           | Web:      www.OpenFOAM.org                      |
|    \\/     M anipulation  |                                                 |
\*---------------------------------------------------------------------------*/
FoamFile
{
    version     2.0;
    format      ascii;
    class       volScalarField;
    location    "8.9";
    object      gradTz;
}
// * * * * * * * * * * * * * * * * * * * * * * * * * * * * * * * * * * * * * //

dimensions      [0 -1 0 1 0 0 0];

internalField   nonuniform List<scalar> 
64
(
-0.0394269
-0.0394269
-0.0394269
-0.0394269
5
5
5
5
-2.19472e-08
-0.0394326
-0.0399924
-2.1785e-08
-2.19456e-08
-2.17866e-08
-0.039998
-2.19472e-08
-0.0394326
-0.0399924
-2.1785e-08
-2.19456e-08
-2.17866e-08
-0.039998
-2.19472e-08
-0.0399924
-0.0394326
-2.1785e-08
-2.17866e-08
-2.19456e-08
-0.039998
-2.19472e-08
-0.0399924
-0.0394326
-2.1785e-08
-2.17866e-08
-2.19456e-08
-0.039998
2.844e-06
2.844e-06
5
5
2.844e-06
2.844e-06
5
2.844e-06
2.844e-06
5
5
2.844e-06
2.844e-06
5
2.844e-06
2.844e-06
5
5
2.844e-06
2.844e-06
5
2.844e-06
2.844e-06
5
5
2.844e-06
2.844e-06
5
)
;

boundaryField
{
    walls
    {
        type            calculated;
        value           nonuniform List<scalar> 
64
(
-0.0394269
-0.0394269
-0.0394269
-0.0394269
5
5
-0.0394269
5
5
-0.0394269
-0.0394269
5
5
-0.0394269
5
5
-2.1785e-08
-2.17866e-08
-0.0394326
-2.1785e-08
-2.19456e-08
-0.0399924
-0.0399924
-2.19456e-08
-2.1785e-08
-0.0394326
-2.17866e-08
-2.1785e-08
5
2.844e-06
2.844e-06
2.844e-06
2.844e-06
5
-0.0394326
-2.17866e-08
-2.1785e-08
5
2.844e-06
2.844e-06
2.844e-06
2.844e-06
5
-0.0399924
-2.19456e-08
-2.1785e-08
-2.1785e-08
-2.19456e-08
-0.0399924
5
2.844e-06
2.844e-06
2.844e-06
2.844e-06
5
-2.1785e-08
-2.17866e-08
-0.0394326
5
2.844e-06
2.844e-06
2.844e-06
2.844e-06
5
)
;
    }
    inlet
    {
        type            calculated;
        value           nonuniform List<scalar> 
16
(
-0.0788538
-0.0788538
-0.0788538
-0.0788538
-0.0799847
-0.079996
-0.0788652
-0.0788652
-0.079996
-0.0799847
-0.0799847
-0.079996
-0.0788652
-0.0788652
-0.079996
-0.0799847
)
;
    }
    outlet
    {
        type            calculated;
        value           uniform 10;
    }
}


// ************************************************************************* //
