/*--------------------------------*- C++ -*----------------------------------*\
| =========                 |                                                 |
| \\      /  F ield         | OpenFOAM: The Open Source CFD Toolbox           |
|  \\    /   O peration     | Version:  2.3.0                                 |
|   \\  /    A nd           | Web:      www.OpenFOAM.org                      |
|    \\/     M anipulation  |                                                 |
\*---------------------------------------------------------------------------*/
FoamFile
{
    version     2.0;
    format      ascii;
    class       volScalarField;
    location    "4.2";
    object      gradTz;
}
// * * * * * * * * * * * * * * * * * * * * * * * * * * * * * * * * * * * * * //

dimensions      [0 -1 0 1 0 0 0];

internalField   nonuniform List<scalar> 
64
(
-0.0397295
-0.0397295
-0.0397295
-0.0397295
5
5
5
5
-9.91647e-09
-0.0397322
-0.0399966
-9.88032e-09
-9.91611e-09
-9.88068e-09
-0.0399993
-9.91647e-09
-0.0397322
-0.0399966
-9.88032e-09
-9.91611e-09
-9.88068e-09
-0.0399993
-9.91647e-09
-0.0399966
-0.0397322
-9.88032e-09
-9.88068e-09
-9.91611e-09
-0.0399993
-9.91647e-09
-0.0399966
-0.0397322
-9.88032e-09
-9.88068e-09
-9.91611e-09
-0.0399993
1.34e-06
1.34e-06
5
5
1.34e-06
1.34e-06
5
1.34e-06
1.34e-06
5
5
1.34e-06
1.34e-06
5
1.34e-06
1.34e-06
5
5
1.34e-06
1.34e-06
5
1.34e-06
1.34e-06
5
5
1.34e-06
1.34e-06
5
)
;

boundaryField
{
    walls
    {
        type            calculated;
        value           nonuniform List<scalar> 
64
(
-0.0397295
-0.0397295
-0.0397295
-0.0397295
5
5
-0.0397295
5
5
-0.0397295
-0.0397295
5
5
-0.0397295
5
5
-9.88032e-09
-9.88068e-09
-0.0397322
-9.88032e-09
-9.91611e-09
-0.0399966
-0.0399966
-9.91611e-09
-9.88032e-09
-0.0397322
-9.88068e-09
-9.88032e-09
5
1.34e-06
1.34e-06
1.34e-06
1.34e-06
5
-0.0397322
-9.88068e-09
-9.88032e-09
5
1.34e-06
1.34e-06
1.34e-06
1.34e-06
5
-0.0399966
-9.91611e-09
-9.88032e-09
-9.88032e-09
-9.91611e-09
-0.0399966
5
1.34e-06
1.34e-06
1.34e-06
1.34e-06
5
-9.88032e-09
-9.88068e-09
-0.0397322
5
1.34e-06
1.34e-06
1.34e-06
1.34e-06
5
)
;
    }
    inlet
    {
        type            calculated;
        value           nonuniform List<scalar> 
16
(
-0.079459
-0.079459
-0.079459
-0.079459
-0.0799932
-0.0799986
-0.0794643
-0.0794643
-0.0799986
-0.0799932
-0.0799932
-0.0799986
-0.0794643
-0.0794643
-0.0799986
-0.0799932
)
;
    }
    outlet
    {
        type            calculated;
        value           uniform 10;
    }
}


// ************************************************************************* //
