/*--------------------------------*- C++ -*----------------------------------*\
| =========                 |                                                 |
| \\      /  F ield         | OpenFOAM: The Open Source CFD Toolbox           |
|  \\    /   O peration     | Version:  2.3.0                                 |
|   \\  /    A nd           | Web:      www.OpenFOAM.org                      |
|    \\/     M anipulation  |                                                 |
\*---------------------------------------------------------------------------*/
FoamFile
{
    version     2.0;
    format      ascii;
    class       volScalarField;
    location    "4.2";
    object      T;
}
// * * * * * * * * * * * * * * * * * * * * * * * * * * * * * * * * * * * * * //

dimensions      [0 0 0 1 0 0 0];

internalField   nonuniform List<scalar> 
64
(
0.00676263
0.00676263
0.00676263
0.00676263
0.0068291
0.0068291
0.0068291
0.0068291
1.70622e-05
0.00669567
8.45578e-05
0.0067621
8.40221e-05
0.00669514
1.75978e-05
1.70622e-05
0.00669567
8.45578e-05
0.0067621
8.40221e-05
0.00669514
1.75978e-05
1.70622e-05
8.45578e-05
0.00669567
0.0067621
0.00669514
8.40221e-05
1.75978e-05
1.70622e-05
8.45578e-05
0.00669567
0.0067621
0.00669514
8.40221e-05
1.75978e-05
1.7102e-05
0.00676214
0.00676214
0.000151022
8.4062e-05
0.00669518
8.4062e-05
1.7102e-05
0.00676214
0.00676214
0.000151022
8.4062e-05
0.00669518
8.4062e-05
1.7102e-05
0.00676214
0.000151022
0.00676214
0.00669518
8.4062e-05
8.4062e-05
1.7102e-05
0.00676214
0.000151022
0.00676214
0.00669518
8.4062e-05
8.4062e-05
)
;

boundaryField
{
    walls
    {
        type            fixedGradient;
        gradient        uniform 10;
    }
    inlet
    {
        type            fixedValue;
        value           uniform 1;
    }
    outlet
    {
        type            fixedGradient;
        gradient        uniform 10;
    }
}


// ************************************************************************* //
