/*--------------------------------*- C++ -*----------------------------------*\
| =========                 |                                                 |
| \\      /  F ield         | OpenFOAM: The Open Source CFD Toolbox           |
|  \\    /   O peration     | Version:  2.3.0                                 |
|   \\  /    A nd           | Web:      www.OpenFOAM.org                      |
|    \\/     M anipulation  |                                                 |
\*---------------------------------------------------------------------------*/
FoamFile
{
    version     2.0;
    format      ascii;
    class       volScalarField;
    location    "3.7";
    object      T;
}
// * * * * * * * * * * * * * * * * * * * * * * * * * * * * * * * * * * * * * //

dimensions      [0 0 0 1 0 0 0];

internalField   nonuniform List<scalar> 
64
(
0.00595658
0.00595658
0.00595658
0.00595658
0.00601511
0.00601511
0.00601511
0.00601511
1.50512e-05
0.00589762
7.44829e-05
0.00595611
7.40112e-05
0.00589715
1.55229e-05
1.50512e-05
0.00589762
7.44829e-05
0.00595611
7.40112e-05
0.00589715
1.55229e-05
1.50512e-05
7.44829e-05
0.00589762
0.00595611
0.00589715
7.40112e-05
1.55229e-05
1.50512e-05
7.44829e-05
0.00589762
0.00595611
0.00589715
7.40112e-05
1.55229e-05
1.50911e-05
0.00595615
0.00595615
0.000133011
7.40511e-05
0.00589719
7.40511e-05
1.50911e-05
0.00595615
0.00595615
0.000133011
7.40511e-05
0.00589719
7.40511e-05
1.50911e-05
0.00595615
0.000133011
0.00595615
0.00589719
7.40511e-05
7.40511e-05
1.50911e-05
0.00595615
0.000133011
0.00595615
0.00589719
7.40511e-05
7.40511e-05
)
;

boundaryField
{
    walls
    {
        type            fixedGradient;
        gradient        uniform 10;
    }
    inlet
    {
        type            fixedValue;
        value           uniform 1;
    }
    outlet
    {
        type            fixedGradient;
        gradient        uniform 10;
    }
}


// ************************************************************************* //
