/*--------------------------------*- C++ -*----------------------------------*\
| =========                 |                                                 |
| \\      /  F ield         | OpenFOAM: The Open Source CFD Toolbox           |
|  \\    /   O peration     | Version:  2.3.0                                 |
|   \\  /    A nd           | Web:      www.OpenFOAM.org                      |
|    \\/     M anipulation  |                                                 |
\*---------------------------------------------------------------------------*/
FoamFile
{
    version     2.0;
    format      ascii;
    class       volScalarField;
    location    "3.9";
    object      gradTz;
}
// * * * * * * * * * * * * * * * * * * * * * * * * * * * * * * * * * * * * * //

dimensions      [0 -1 0 1 0 0 0];

internalField   nonuniform List<scalar> 
64
(
-0.0397488
-0.0397488
-0.0397488
-0.0397488
5
5
5
5
-9.14851e-09
-0.0397513
-0.0399969
-9.11735e-09
-9.1482e-09
-9.11766e-09
-0.0399994
-9.14851e-09
-0.0397513
-0.0399969
-9.11735e-09
-9.1482e-09
-9.11766e-09
-0.0399994
-9.14851e-09
-0.0399969
-0.0397513
-9.11735e-09
-9.11766e-09
-9.1482e-09
-0.0399994
-9.14851e-09
-0.0399969
-0.0397513
-9.11735e-09
-9.11766e-09
-9.1482e-09
-0.0399994
1.244e-06
1.244e-06
5
5
1.244e-06
1.244e-06
5
1.244e-06
1.244e-06
5
5
1.244e-06
1.244e-06
5
1.244e-06
1.244e-06
5
5
1.244e-06
1.244e-06
5
1.244e-06
1.244e-06
5
5
1.244e-06
1.244e-06
5
)
;

boundaryField
{
    walls
    {
        type            calculated;
        value           nonuniform List<scalar> 
64
(
-0.0397488
-0.0397488
-0.0397488
-0.0397488
5
5
-0.0397488
5
5
-0.0397488
-0.0397488
5
5
-0.0397488
5
5
-9.11735e-09
-9.11766e-09
-0.0397513
-9.11735e-09
-9.1482e-09
-0.0399969
-0.0399969
-9.1482e-09
-9.11735e-09
-0.0397513
-9.11766e-09
-9.11735e-09
5
1.244e-06
1.244e-06
1.244e-06
1.244e-06
5
-0.0397513
-9.11766e-09
-9.11735e-09
5
1.244e-06
1.244e-06
1.244e-06
1.244e-06
5
-0.0399969
-9.1482e-09
-9.11735e-09
-9.11735e-09
-9.1482e-09
-0.0399969
5
1.244e-06
1.244e-06
1.244e-06
1.244e-06
5
-9.11735e-09
-9.11766e-09
-0.0397513
5
1.244e-06
1.244e-06
1.244e-06
1.244e-06
5
)
;
    }
    inlet
    {
        type            calculated;
        value           nonuniform List<scalar> 
16
(
-0.0794977
-0.0794977
-0.0794977
-0.0794977
-0.0799937
-0.0799987
-0.0795027
-0.0795027
-0.0799987
-0.0799937
-0.0799937
-0.0799987
-0.0795027
-0.0795027
-0.0799987
-0.0799937
)
;
    }
    outlet
    {
        type            calculated;
        value           uniform 10;
    }
}


// ************************************************************************* //
