/*--------------------------------*- C++ -*----------------------------------*\
| =========                 |                                                 |
| \\      /  F ield         | OpenFOAM: The Open Source CFD Toolbox           |
|  \\    /   O peration     | Version:  2.3.0                                 |
|   \\  /    A nd           | Web:      www.OpenFOAM.org                      |
|    \\/     M anipulation  |                                                 |
\*---------------------------------------------------------------------------*/
FoamFile
{
    version     2.0;
    format      ascii;
    class       volScalarField;
    location    "3.9";
    object      T;
}
// * * * * * * * * * * * * * * * * * * * * * * * * * * * * * * * * * * * * * //

dimensions      [0 0 0 1 0 0 0];

internalField   nonuniform List<scalar> 
64
(
0.00627903
0.00627903
0.00627903
0.00627903
0.00634074
0.00634074
0.00634074
0.00634074
1.5825e-05
0.00621687
7.84823e-05
0.00627854
7.7985e-05
0.00621638
1.63223e-05
1.5825e-05
0.00621687
7.84823e-05
0.00627854
7.7985e-05
0.00621638
1.63223e-05
1.5825e-05
7.84823e-05
0.00621687
0.00627854
0.00621638
7.7985e-05
1.63223e-05
1.5825e-05
7.84823e-05
0.00621687
0.00627854
0.00621638
7.7985e-05
1.63223e-05
1.58649e-05
0.00627858
0.00627858
0.000140185
7.80249e-05
0.00621642
7.80249e-05
1.58649e-05
0.00627858
0.00627858
0.000140185
7.80249e-05
0.00621642
7.80249e-05
1.58649e-05
0.00627858
0.000140185
0.00627858
0.00621642
7.80249e-05
7.80249e-05
1.58649e-05
0.00627858
0.000140185
0.00627858
0.00621642
7.80249e-05
7.80249e-05
)
;

boundaryField
{
    walls
    {
        type            fixedGradient;
        gradient        uniform 10;
    }
    inlet
    {
        type            fixedValue;
        value           uniform 1;
    }
    outlet
    {
        type            fixedGradient;
        gradient        uniform 10;
    }
}


// ************************************************************************* //
