/*--------------------------------*- C++ -*----------------------------------*\
| =========                 |                                                 |
| \\      /  F ield         | OpenFOAM: The Open Source CFD Toolbox           |
|  \\    /   O peration     | Version:  2.3.0                                 |
|   \\  /    A nd           | Web:      www.OpenFOAM.org                      |
|    \\/     M anipulation  |                                                 |
\*---------------------------------------------------------------------------*/
FoamFile
{
    version     2.0;
    format      ascii;
    class       volScalarField;
    location    "9.9";
    object      gradTz;
}
// * * * * * * * * * * * * * * * * * * * * * * * * * * * * * * * * * * * * * //

dimensions      [0 -1 0 1 0 0 0];

internalField   nonuniform List<scalar> 
64
(
-0.0393627
-0.0393627
-0.0393627
-0.0393627
5
5
5
5
-2.45067e-08
-0.039369
-0.0399913
-2.43062e-08
-2.45047e-08
-2.43082e-08
-0.0399977
-2.45067e-08
-0.039369
-0.0399913
-2.43062e-08
-2.45047e-08
-2.43082e-08
-0.0399977
-2.45067e-08
-0.0399913
-0.039369
-2.43062e-08
-2.43082e-08
-2.45047e-08
-0.0399977
-2.45067e-08
-0.0399913
-0.039369
-2.43062e-08
-2.43082e-08
-2.45047e-08
-0.0399977
3.164e-06
3.164e-06
5
5
3.164e-06
3.164e-06
5
3.164e-06
3.164e-06
5
5
3.164e-06
3.164e-06
5
3.164e-06
3.164e-06
5
5
3.164e-06
3.164e-06
5
3.164e-06
3.164e-06
5
5
3.164e-06
3.164e-06
5
)
;

boundaryField
{
    walls
    {
        type            calculated;
        value           nonuniform List<scalar> 
64
(
-0.0393627
-0.0393627
-0.0393627
-0.0393627
5
5
-0.0393627
5
5
-0.0393627
-0.0393627
5
5
-0.0393627
5
5
-2.43062e-08
-2.43082e-08
-0.039369
-2.43062e-08
-2.45047e-08
-0.0399913
-0.0399913
-2.45047e-08
-2.43062e-08
-0.039369
-2.43082e-08
-2.43062e-08
5
3.164e-06
3.164e-06
3.164e-06
3.164e-06
5
-0.039369
-2.43082e-08
-2.43062e-08
5
3.164e-06
3.164e-06
3.164e-06
3.164e-06
5
-0.0399913
-2.45047e-08
-2.43062e-08
-2.43062e-08
-2.45047e-08
-0.0399913
5
3.164e-06
3.164e-06
3.164e-06
3.164e-06
5
-2.43062e-08
-2.43082e-08
-0.039369
5
3.164e-06
3.164e-06
3.164e-06
3.164e-06
5
)
;
    }
    inlet
    {
        type            calculated;
        value           nonuniform List<scalar> 
16
(
-0.0787253
-0.0787253
-0.0787253
-0.0787253
-0.0799826
-0.0799953
-0.078738
-0.078738
-0.0799953
-0.0799826
-0.0799826
-0.0799953
-0.078738
-0.078738
-0.0799953
-0.0799826
)
;
    }
    outlet
    {
        type            calculated;
        value           uniform 10;
    }
}


// ************************************************************************* //
