/*--------------------------------*- C++ -*----------------------------------*\
| =========                 |                                                 |
| \\      /  F ield         | OpenFOAM: The Open Source CFD Toolbox           |
|  \\    /   O peration     | Version:  2.3.0                                 |
|   \\  /    A nd           | Web:      www.OpenFOAM.org                      |
|    \\/     M anipulation  |                                                 |
\*---------------------------------------------------------------------------*/
FoamFile
{
    version     2.0;
    format      ascii;
    class       volScalarField;
    location    "2.3";
    object      gradTz;
}
// * * * * * * * * * * * * * * * * * * * * * * * * * * * * * * * * * * * * * //

dimensions      [0 -1 0 1 0 0 0];

internalField   nonuniform List<scalar> 
64
(
-0.0398521
-0.0398521
-0.0398521
-0.0398521
5
5
5
5
-5.05269e-09
-0.0398535
-0.0399981
-5.04188e-09
-5.05258e-09
-5.04199e-09
-0.0399996
-5.05269e-09
-0.0398535
-0.0399981
-5.04188e-09
-5.05258e-09
-5.04199e-09
-0.0399996
-5.05269e-09
-0.0399981
-0.0398535
-5.04188e-09
-5.04199e-09
-5.05258e-09
-0.0399996
-5.05269e-09
-0.0399981
-0.0398535
-5.04188e-09
-5.04199e-09
-5.05258e-09
-0.0399996
7.31997e-07
7.31997e-07
5
5
7.31997e-07
7.31997e-07
5
7.31997e-07
7.31997e-07
5
5
7.31997e-07
7.31997e-07
5
7.31997e-07
7.31997e-07
5
5
7.31997e-07
7.31997e-07
5
7.31997e-07
7.31997e-07
5
5
7.31997e-07
7.31997e-07
5
)
;

boundaryField
{
    walls
    {
        type            calculated;
        value           nonuniform List<scalar> 
64
(
-0.0398521
-0.0398521
-0.0398521
-0.0398521
5
5
-0.0398521
5
5
-0.0398521
-0.0398521
5
5
-0.0398521
5
5
-5.04188e-09
-5.04199e-09
-0.0398535
-5.04188e-09
-5.05258e-09
-0.0399981
-0.0399981
-5.05258e-09
-5.04188e-09
-0.0398535
-5.04199e-09
-5.04188e-09
5
7.31997e-07
7.31997e-07
7.31997e-07
7.31997e-07
5
-0.0398535
-5.04199e-09
-5.04188e-09
5
7.31997e-07
7.31997e-07
7.31997e-07
7.31997e-07
5
-0.0399981
-5.05258e-09
-5.04188e-09
-5.04188e-09
-5.05258e-09
-0.0399981
5
7.31997e-07
7.31997e-07
7.31997e-07
7.31997e-07
5
-5.04188e-09
-5.04199e-09
-0.0398535
5
7.31997e-07
7.31997e-07
7.31997e-07
7.31997e-07
5
)
;
    }
    inlet
    {
        type            calculated;
        value           nonuniform List<scalar> 
16
(
-0.0797041
-0.0797041
-0.0797041
-0.0797041
-0.0799962
-0.0799991
-0.0797071
-0.0797071
-0.0799991
-0.0799962
-0.0799962
-0.0799991
-0.0797071
-0.0797071
-0.0799991
-0.0799962
)
;
    }
    outlet
    {
        type            calculated;
        value           uniform 10;
    }
}


// ************************************************************************* //
