/*--------------------------------*- C++ -*----------------------------------*\
| =========                 |                                                 |
| \\      /  F ield         | OpenFOAM: The Open Source CFD Toolbox           |
|  \\    /   O peration     | Version:  2.3.0                                 |
|   \\  /    A nd           | Web:      www.OpenFOAM.org                      |
|    \\/     M anipulation  |                                                 |
\*---------------------------------------------------------------------------*/
FoamFile
{
    version     2.0;
    format      ascii;
    class       volScalarField;
    location    "7.5";
    object      gradTz;
}
// * * * * * * * * * * * * * * * * * * * * * * * * * * * * * * * * * * * * * //

dimensions      [0 -1 0 1 0 0 0];

internalField   nonuniform List<scalar> 
64
(
-0.039517
-0.039517
-0.039517
-0.039517
5
5
5
5
-1.83637e-08
-0.0395218
-0.0399937
-1.82485e-08
-1.83625e-08
-1.82496e-08
-0.0399985
-1.83637e-08
-0.0395218
-0.0399937
-1.82485e-08
-1.83625e-08
-1.82496e-08
-0.0399985
-1.83637e-08
-0.0399937
-0.0395218
-1.82485e-08
-1.82496e-08
-1.83625e-08
-0.0399985
-1.83637e-08
-0.0399937
-0.0395218
-1.82485e-08
-1.82496e-08
-1.83625e-08
-0.0399985
2.396e-06
2.396e-06
5
5
2.396e-06
2.396e-06
5
2.396e-06
2.396e-06
5
5
2.396e-06
2.396e-06
5
2.396e-06
2.396e-06
5
5
2.396e-06
2.396e-06
5
2.396e-06
2.396e-06
5
5
2.396e-06
2.396e-06
5
)
;

boundaryField
{
    walls
    {
        type            calculated;
        value           nonuniform List<scalar> 
64
(
-0.039517
-0.039517
-0.039517
-0.039517
5
5
-0.039517
5
5
-0.039517
-0.039517
5
5
-0.039517
5
5
-1.82485e-08
-1.82496e-08
-0.0395218
-1.82485e-08
-1.83625e-08
-0.0399937
-0.0399937
-1.83625e-08
-1.82485e-08
-0.0395218
-1.82496e-08
-1.82485e-08
5
2.396e-06
2.396e-06
2.396e-06
2.396e-06
5
-0.0395218
-1.82496e-08
-1.82485e-08
5
2.396e-06
2.396e-06
2.396e-06
2.396e-06
5
-0.0399937
-1.83625e-08
-1.82485e-08
-1.82485e-08
-1.83625e-08
-0.0399937
5
2.396e-06
2.396e-06
2.396e-06
2.396e-06
5
-1.82485e-08
-1.82496e-08
-0.0395218
5
2.396e-06
2.396e-06
2.396e-06
2.396e-06
5
)
;
    }
    inlet
    {
        type            calculated;
        value           nonuniform List<scalar> 
16
(
-0.0790339
-0.0790339
-0.0790339
-0.0790339
-0.0799874
-0.079997
-0.0790435
-0.0790435
-0.079997
-0.0799874
-0.0799874
-0.079997
-0.0790435
-0.0790435
-0.079997
-0.0799874
)
;
    }
    outlet
    {
        type            calculated;
        value           uniform 10;
    }
}


// ************************************************************************* //
