/*--------------------------------*- C++ -*----------------------------------*\
| =========                 |                                                 |
| \\      /  F ield         | OpenFOAM: The Open Source CFD Toolbox           |
|  \\    /   O peration     | Version:  2.3.0                                 |
|   \\  /    A nd           | Web:      www.OpenFOAM.org                      |
|    \\/     M anipulation  |                                                 |
\*---------------------------------------------------------------------------*/
FoamFile
{
    version     2.0;
    format      ascii;
    class       volScalarField;
    location    "7.5";
    object      T;
}
// * * * * * * * * * * * * * * * * * * * * * * * * * * * * * * * * * * * * * //

dimensions      [0 0 0 1 0 0 0];

internalField   nonuniform List<scalar> 
64
(
0.0120762
0.0120762
0.0120762
0.0120762
0.012195
0.012195
0.012195
0.012195
3.67127e-05
0.0119564
0.000157431
0.0120752
0.000156473
0.0119555
3.76708e-05
3.67127e-05
0.0119564
0.000157431
0.0120752
0.000156473
0.0119555
3.76708e-05
3.67127e-05
0.000157431
0.0119564
0.0120752
0.0119555
0.000156473
3.76708e-05
3.67127e-05
0.000157431
0.0119564
0.0120752
0.0119555
0.000156473
3.76708e-05
3.67526e-05
0.0120753
0.0120753
0.000276272
0.000156513
0.0119555
0.000156513
3.67526e-05
0.0120753
0.0120753
0.000276272
0.000156513
0.0119555
0.000156513
3.67526e-05
0.0120753
0.000276272
0.0120753
0.0119555
0.000156513
0.000156513
3.67526e-05
0.0120753
0.000276272
0.0120753
0.0119555
0.000156513
0.000156513
)
;

boundaryField
{
    walls
    {
        type            fixedGradient;
        gradient        uniform 10;
    }
    inlet
    {
        type            fixedValue;
        value           uniform 1;
    }
    outlet
    {
        type            fixedGradient;
        gradient        uniform 10;
    }
}


// ************************************************************************* //
