/*--------------------------------*- C++ -*----------------------------------*\
| =========                 |                                                 |
| \\      /  F ield         | OpenFOAM: The Open Source CFD Toolbox           |
|  \\    /   O peration     | Version:  2.3.0                                 |
|   \\  /    A nd           | Web:      www.OpenFOAM.org                      |
|    \\/     M anipulation  |                                                 |
\*---------------------------------------------------------------------------*/
FoamFile
{
    version     2.0;
    format      ascii;
    class       volScalarField;
    location    "8";
    object      gradTz;
}
// * * * * * * * * * * * * * * * * * * * * * * * * * * * * * * * * * * * * * //

dimensions      [0 -1 0 1 0 0 0];

internalField   nonuniform List<scalar> 
64
(
-0.0394848
-0.0394848
-0.0394848
-0.0394848
5
5
5
5
-1.96435e-08
-0.0394899
-0.0399932
-1.95124e-08
-1.96422e-08
-1.95137e-08
-0.0399984
-1.96435e-08
-0.0394899
-0.0399932
-1.95124e-08
-1.96422e-08
-1.95137e-08
-0.0399984
-1.96435e-08
-0.0399932
-0.0394899
-1.95124e-08
-1.95137e-08
-1.96422e-08
-0.0399984
-1.96435e-08
-0.0399932
-0.0394899
-1.95124e-08
-1.95137e-08
-1.96422e-08
-0.0399984
2.556e-06
2.556e-06
5
5
2.556e-06
2.556e-06
5
2.556e-06
2.556e-06
5
5
2.556e-06
2.556e-06
5
2.556e-06
2.556e-06
5
5
2.556e-06
2.556e-06
5
2.556e-06
2.556e-06
5
5
2.556e-06
2.556e-06
5
)
;

boundaryField
{
    walls
    {
        type            calculated;
        value           nonuniform List<scalar> 
64
(
-0.0394848
-0.0394848
-0.0394848
-0.0394848
5
5
-0.0394848
5
5
-0.0394848
-0.0394848
5
5
-0.0394848
5
5
-1.95124e-08
-1.95137e-08
-0.0394899
-1.95124e-08
-1.96422e-08
-0.0399932
-0.0399932
-1.96422e-08
-1.95124e-08
-0.0394899
-1.95137e-08
-1.95124e-08
5
2.556e-06
2.556e-06
2.556e-06
2.556e-06
5
-0.0394899
-1.95137e-08
-1.95124e-08
5
2.556e-06
2.556e-06
2.556e-06
2.556e-06
5
-0.0399932
-1.96422e-08
-1.95124e-08
-1.95124e-08
-1.96422e-08
-0.0399932
5
2.556e-06
2.556e-06
2.556e-06
2.556e-06
5
-1.95124e-08
-1.95137e-08
-0.0394899
5
2.556e-06
2.556e-06
2.556e-06
2.556e-06
5
)
;
    }
    inlet
    {
        type            calculated;
        value           nonuniform List<scalar> 
16
(
-0.0789696
-0.0789696
-0.0789696
-0.0789696
-0.0799864
-0.0799967
-0.0789798
-0.0789798
-0.0799967
-0.0799864
-0.0799864
-0.0799967
-0.0789798
-0.0789798
-0.0799967
-0.0799864
)
;
    }
    outlet
    {
        type            calculated;
        value           uniform 10;
    }
}


// ************************************************************************* //
