/*--------------------------------*- C++ -*----------------------------------*\
| =========                 |                                                 |
| \\      /  F ield         | OpenFOAM: The Open Source CFD Toolbox           |
|  \\    /   O peration     | Version:  2.3.0                                 |
|   \\  /    A nd           | Web:      www.OpenFOAM.org                      |
|    \\/     M anipulation  |                                                 |
\*---------------------------------------------------------------------------*/
FoamFile
{
    version     2.0;
    format      ascii;
    class       volScalarField;
    location    "8";
    object      T;
}
// * * * * * * * * * * * * * * * * * * * * * * * * * * * * * * * * * * * * * //

dimensions      [0 0 0 1 0 0 0];

internalField   nonuniform List<scalar> 
64
(
0.0128803
0.0128803
0.0128803
0.0128803
0.0130071
0.0130071
0.0130071
0.0130071
4.06548e-05
0.0127526
0.000169437
0.0128793
0.000168415
0.0127515
4.16768e-05
4.06548e-05
0.0127526
0.000169437
0.0128793
0.000168415
0.0127515
4.16768e-05
4.06548e-05
0.000169437
0.0127526
0.0128793
0.0127515
0.000168415
4.16768e-05
4.06548e-05
0.000169437
0.0127526
0.0128793
0.0127515
0.000168415
4.16768e-05
4.06946e-05
0.0128793
0.0128793
0.000296215
0.000168455
0.0127516
0.000168455
4.06946e-05
0.0128793
0.0128793
0.000296215
0.000168455
0.0127516
0.000168455
4.06946e-05
0.0128793
0.000296215
0.0128793
0.0127516
0.000168455
0.000168455
4.06946e-05
0.0128793
0.000296215
0.0128793
0.0127516
0.000168455
0.000168455
)
;

boundaryField
{
    walls
    {
        type            fixedGradient;
        gradient        uniform 10;
    }
    inlet
    {
        type            fixedValue;
        value           uniform 1;
    }
    outlet
    {
        type            fixedGradient;
        gradient        uniform 10;
    }
}


// ************************************************************************* //
