/*--------------------------------*- C++ -*----------------------------------*\
| =========                 |                                                 |
| \\      /  F ield         | OpenFOAM: The Open Source CFD Toolbox           |
|  \\    /   O peration     | Version:  2.3.0                                 |
|   \\  /    A nd           | Web:      www.OpenFOAM.org                      |
|    \\/     M anipulation  |                                                 |
\*---------------------------------------------------------------------------*/
FoamFile
{
    version     2.0;
    format      ascii;
    class       volScalarField;
    location    "5.2";
    object      T;
}
// * * * * * * * * * * * * * * * * * * * * * * * * * * * * * * * * * * * * * //

dimensions      [0 0 0 1 0 0 0];

internalField   nonuniform List<scalar> 
64
(
0.00837397
0.00837397
0.00837397
0.00837397
0.00845631
0.00845631
0.00845631
0.00845631
2.18477e-05
0.00829101
0.000105471
0.00837331
0.000104808
0.00829035
2.25114e-05
2.18477e-05
0.00829101
0.000105471
0.00837331
0.000104808
0.00829035
2.25114e-05
2.18477e-05
0.000105471
0.00829101
0.00837331
0.00829035
0.000104808
2.25114e-05
2.18477e-05
0.000105471
0.00829101
0.00837331
0.00829035
0.000104808
2.25114e-05
2.18876e-05
0.00837335
0.00837335
0.000187808
0.000104848
0.00829039
0.000104848
2.18876e-05
0.00837335
0.00837335
0.000187808
0.000104848
0.00829039
0.000104848
2.18876e-05
0.00837335
0.000187808
0.00837335
0.00829039
0.000104848
0.000104848
2.18876e-05
0.00837335
0.000187808
0.00837335
0.00829039
0.000104848
0.000104848
)
;

boundaryField
{
    walls
    {
        type            fixedGradient;
        gradient        uniform 10;
    }
    inlet
    {
        type            fixedValue;
        value           uniform 1;
    }
    outlet
    {
        type            fixedGradient;
        gradient        uniform 10;
    }
}


// ************************************************************************* //
