/*--------------------------------*- C++ -*----------------------------------*\
| =========                 |                                                 |
| \\      /  F ield         | OpenFOAM: The Open Source CFD Toolbox           |
|  \\    /   O peration     | Version:  2.3.0                                 |
|   \\  /    A nd           | Web:      www.OpenFOAM.org                      |
|    \\/     M anipulation  |                                                 |
\*---------------------------------------------------------------------------*/
FoamFile
{
    version     2.0;
    format      ascii;
    class       volScalarField;
    location    "8.8";
    object      T;
}
// * * * * * * * * * * * * * * * * * * * * * * * * * * * * * * * * * * * * * //

dimensions      [0 0 0 1 0 0 0];

internalField   nonuniform List<scalar> 
64
(
0.0141664
0.0141664
0.0141664
0.0141664
0.0143059
0.0143059
0.0143059
0.0143059
4.7489e-05
0.0140258
0.000189173
0.0141653
0.000188049
0.0140247
4.86135e-05
4.7489e-05
0.0140258
0.000189173
0.0141653
0.000188049
0.0140247
4.86135e-05
4.7489e-05
0.000189173
0.0140258
0.0141653
0.0140247
0.000188049
4.86135e-05
4.7489e-05
0.000189173
0.0140258
0.0141653
0.0140247
0.000188049
4.86135e-05
4.75289e-05
0.0141653
0.0141653
0.000328649
0.000188089
0.0140248
0.000188089
4.75289e-05
0.0141653
0.0141653
0.000328649
0.000188089
0.0140248
0.000188089
4.75289e-05
0.0141653
0.000328649
0.0141653
0.0140248
0.000188089
0.000188089
4.75289e-05
0.0141653
0.000328649
0.0141653
0.0140248
0.000188089
0.000188089
)
;

boundaryField
{
    walls
    {
        type            fixedGradient;
        gradient        uniform 10;
    }
    inlet
    {
        type            fixedValue;
        value           uniform 1;
    }
    outlet
    {
        type            fixedGradient;
        gradient        uniform 10;
    }
}


// ************************************************************************* //
