/*--------------------------------*- C++ -*----------------------------------*\
| =========                 |                                                 |
| \\      /  F ield         | OpenFOAM: The Open Source CFD Toolbox           |
|  \\    /   O peration     | Version:  2.3.0                                 |
|   \\  /    A nd           | Web:      www.OpenFOAM.org                      |
|    \\/     M anipulation  |                                                 |
\*---------------------------------------------------------------------------*/
FoamFile
{
    version     2.0;
    format      ascii;
    class       volScalarField;
    location    "6.5";
    object      gradTz;
}
// * * * * * * * * * * * * * * * * * * * * * * * * * * * * * * * * * * * * * //

dimensions      [0 -1 0 1 0 0 0];

internalField   nonuniform List<scalar> 
64
(
-0.0395813
-0.0395813
-0.0395813
-0.0395813
5
5
5
5
-1.5804e-08
-0.0395855
-0.0399946
-1.57174e-08
-1.58031e-08
-1.57183e-08
-0.0399988
-1.5804e-08
-0.0395855
-0.0399946
-1.57174e-08
-1.58031e-08
-1.57183e-08
-0.0399988
-1.5804e-08
-0.0399946
-0.0395855
-1.57174e-08
-1.57183e-08
-1.58031e-08
-0.0399988
-1.5804e-08
-0.0399946
-0.0395855
-1.57174e-08
-1.57183e-08
-1.58031e-08
-0.0399988
2.076e-06
2.076e-06
5
5
2.076e-06
2.076e-06
5
2.076e-06
2.076e-06
5
5
2.076e-06
2.076e-06
5
2.076e-06
2.076e-06
5
5
2.076e-06
2.076e-06
5
2.076e-06
2.076e-06
5
5
2.076e-06
2.076e-06
5
)
;

boundaryField
{
    walls
    {
        type            calculated;
        value           nonuniform List<scalar> 
64
(
-0.0395813
-0.0395813
-0.0395813
-0.0395813
5
5
-0.0395813
5
5
-0.0395813
-0.0395813
5
5
-0.0395813
5
5
-1.57174e-08
-1.57183e-08
-0.0395855
-1.57174e-08
-1.58031e-08
-0.0399946
-0.0399946
-1.58031e-08
-1.57174e-08
-0.0395855
-1.57183e-08
-1.57174e-08
5
2.076e-06
2.076e-06
2.076e-06
2.076e-06
5
-0.0395855
-1.57183e-08
-1.57174e-08
5
2.076e-06
2.076e-06
2.076e-06
2.076e-06
5
-0.0399946
-1.58031e-08
-1.57174e-08
-1.57174e-08
-1.58031e-08
-0.0399946
5
2.076e-06
2.076e-06
2.076e-06
2.076e-06
5
-1.57174e-08
-1.57183e-08
-0.0395855
5
2.076e-06
2.076e-06
2.076e-06
2.076e-06
5
)
;
    }
    inlet
    {
        type            calculated;
        value           nonuniform List<scalar> 
16
(
-0.0791626
-0.0791626
-0.0791626
-0.0791626
-0.0799893
-0.0799976
-0.0791709
-0.0791709
-0.0799976
-0.0799893
-0.0799893
-0.0799976
-0.0791709
-0.0791709
-0.0799976
-0.0799893
)
;
    }
    outlet
    {
        type            calculated;
        value           uniform 10;
    }
}


// ************************************************************************* //
