/*--------------------------------*- C++ -*----------------------------------*\
| =========                 |                                                 |
| \\      /  F ield         | OpenFOAM: The Open Source CFD Toolbox           |
|  \\    /   O peration     | Version:  2.3.0                                 |
|   \\  /    A nd           | Web:      www.OpenFOAM.org                      |
|    \\/     M anipulation  |                                                 |
\*---------------------------------------------------------------------------*/
FoamFile
{
    version     2.0;
    format      ascii;
    class       volScalarField;
    location    "6.5";
    object      T;
}
// * * * * * * * * * * * * * * * * * * * * * * * * * * * * * * * * * * * * * //

dimensions      [0 0 0 1 0 0 0];

internalField   nonuniform List<scalar> 
64
(
0.0104672
0.0104672
0.0104672
0.0104672
0.0105702
0.0105702
0.0105702
0.0105702
2.95895e-05
0.0103634
0.000134179
0.0104664
0.000133349
0.0103626
3.04196e-05
2.95895e-05
0.0103634
0.000134179
0.0104664
0.000133349
0.0103626
3.04196e-05
2.95895e-05
0.000134179
0.0103634
0.0104664
0.0103626
0.000133349
3.04196e-05
2.95895e-05
0.000134179
0.0103634
0.0104664
0.0103626
0.000133349
3.04196e-05
2.96294e-05
0.0104664
0.0104664
0.000237149
0.000133389
0.0103627
0.000133389
2.96294e-05
0.0104664
0.0104664
0.000237149
0.000133389
0.0103627
0.000133389
2.96294e-05
0.0104664
0.000237149
0.0104664
0.0103627
0.000133389
0.000133389
2.96294e-05
0.0104664
0.000237149
0.0104664
0.0103627
0.000133389
0.000133389
)
;

boundaryField
{
    walls
    {
        type            fixedGradient;
        gradient        uniform 10;
    }
    inlet
    {
        type            fixedValue;
        value           uniform 1;
    }
    outlet
    {
        type            fixedGradient;
        gradient        uniform 10;
    }
}


// ************************************************************************* //
