/*--------------------------------*- C++ -*----------------------------------*\
| =========                 |                                                 |
| \\      /  F ield         | OpenFOAM: The Open Source CFD Toolbox           |
|  \\    /   O peration     | Version:  2.3.0                                 |
|   \\  /    A nd           | Web:      www.OpenFOAM.org                      |
|    \\/     M anipulation  |                                                 |
\*---------------------------------------------------------------------------*/
FoamFile
{
    version     2.0;
    format      ascii;
    class       volScalarField;
    location    "7";
    object      gradTz;
}
// * * * * * * * * * * * * * * * * * * * * * * * * * * * * * * * * * * * * * //

dimensions      [0 -1 0 1 0 0 0];

internalField   nonuniform List<scalar> 
64
(
-0.0395491
-0.0395491
-0.0395491
-0.0395491
5
5
5
5
-1.70838e-08
-0.0395536
-0.0399942
-1.69834e-08
-1.70828e-08
-1.69844e-08
-0.0399987
-1.70838e-08
-0.0395536
-0.0399942
-1.69834e-08
-1.70828e-08
-1.69844e-08
-0.0399987
-1.70838e-08
-0.0399942
-0.0395536
-1.69834e-08
-1.69844e-08
-1.70828e-08
-0.0399987
-1.70838e-08
-0.0399942
-0.0395536
-1.69834e-08
-1.69844e-08
-1.70828e-08
-0.0399987
2.236e-06
2.236e-06
5
5
2.236e-06
2.236e-06
5
2.236e-06
2.236e-06
5
5
2.236e-06
2.236e-06
5
2.236e-06
2.236e-06
5
5
2.236e-06
2.236e-06
5
2.236e-06
2.236e-06
5
5
2.236e-06
2.236e-06
5
)
;

boundaryField
{
    walls
    {
        type            calculated;
        value           nonuniform List<scalar> 
64
(
-0.0395491
-0.0395491
-0.0395491
-0.0395491
5
5
-0.0395491
5
5
-0.0395491
-0.0395491
5
5
-0.0395491
5
5
-1.69834e-08
-1.69844e-08
-0.0395536
-1.69834e-08
-1.70828e-08
-0.0399942
-0.0399942
-1.70828e-08
-1.69834e-08
-0.0395536
-1.69844e-08
-1.69834e-08
5
2.236e-06
2.236e-06
2.236e-06
2.236e-06
5
-0.0395536
-1.69844e-08
-1.69834e-08
5
2.236e-06
2.236e-06
2.236e-06
2.236e-06
5
-0.0399942
-1.70828e-08
-1.69834e-08
-1.69834e-08
-1.70828e-08
-0.0399942
5
2.236e-06
2.236e-06
2.236e-06
2.236e-06
5
-1.69834e-08
-1.69844e-08
-0.0395536
5
2.236e-06
2.236e-06
2.236e-06
2.236e-06
5
)
;
    }
    inlet
    {
        type            calculated;
        value           nonuniform List<scalar> 
16
(
-0.0790983
-0.0790983
-0.0790983
-0.0790983
-0.0799883
-0.0799973
-0.0791072
-0.0791072
-0.0799973
-0.0799883
-0.0799883
-0.0799973
-0.0791072
-0.0791072
-0.0799973
-0.0799883
)
;
    }
    outlet
    {
        type            calculated;
        value           uniform 10;
    }
}


// ************************************************************************* //
