/*--------------------------------*- C++ -*----------------------------------*\
| =========                 |                                                 |
| \\      /  F ield         | OpenFOAM: The Open Source CFD Toolbox           |
|  \\    /   O peration     | Version:  2.3.0                                 |
|   \\  /    A nd           | Web:      www.OpenFOAM.org                      |
|    \\/     M anipulation  |                                                 |
\*---------------------------------------------------------------------------*/
FoamFile
{
    version     2.0;
    format      ascii;
    class       volScalarField;
    location    "7";
    object      T;
}
// * * * * * * * * * * * * * * * * * * * * * * * * * * * * * * * * * * * * * //

dimensions      [0 0 0 1 0 0 0];

internalField   nonuniform List<scalar> 
64
(
0.0112718
0.0112718
0.0112718
0.0112718
0.0113827
0.0113827
0.0113827
0.0113827
3.30243e-05
0.0111601
0.000145678
0.0112709
0.000144784
0.0111592
3.39183e-05
3.30243e-05
0.0111601
0.000145678
0.0112709
0.000144784
0.0111592
3.39183e-05
3.30243e-05
0.000145678
0.0111601
0.0112709
0.0111592
0.000144784
3.39183e-05
3.30243e-05
0.000145678
0.0111601
0.0112709
0.0111592
0.000144784
3.39183e-05
3.30641e-05
0.011271
0.011271
0.000256584
0.000144824
0.0111592
0.000144824
3.30641e-05
0.011271
0.011271
0.000256584
0.000144824
0.0111592
0.000144824
3.30641e-05
0.011271
0.000256584
0.011271
0.0111592
0.000144824
0.000144824
3.30641e-05
0.011271
0.000256584
0.011271
0.0111592
0.000144824
0.000144824
)
;

boundaryField
{
    walls
    {
        type            fixedGradient;
        gradient        uniform 10;
    }
    inlet
    {
        type            fixedValue;
        value           uniform 1;
    }
    outlet
    {
        type            fixedGradient;
        gradient        uniform 10;
    }
}


// ************************************************************************* //
