/*--------------------------------*- C++ -*----------------------------------*\
| =========                 |                                                 |
| \\      /  F ield         | OpenFOAM: The Open Source CFD Toolbox           |
|  \\    /   O peration     | Version:  2.3.0                                 |
|   \\  /    A nd           | Web:      www.OpenFOAM.org                      |
|    \\/     M anipulation  |                                                 |
\*---------------------------------------------------------------------------*/
FoamFile
{
    version     2.0;
    format      ascii;
    class       volScalarField;
    location    "1.9";
    object      gradTz;
}
// * * * * * * * * * * * * * * * * * * * * * * * * * * * * * * * * * * * * * //

dimensions      [0 -1 0 1 0 0 0];

internalField   nonuniform List<scalar> 
64
(
-0.0398779
-0.0398779
-0.0398779
-0.0398779
5
5
5
5
-4.02872e-09
-0.0398791
-0.0399984
-4.02136e-09
-4.02864e-09
-4.02143e-09
-0.0399996
-4.02872e-09
-0.0398791
-0.0399984
-4.02136e-09
-4.02864e-09
-4.02143e-09
-0.0399996
-4.02872e-09
-0.0399984
-0.0398791
-4.02136e-09
-4.02143e-09
-4.02864e-09
-0.0399996
-4.02872e-09
-0.0399984
-0.0398791
-4.02136e-09
-4.02143e-09
-4.02864e-09
-0.0399996
6.03997e-07
6.03997e-07
5
5
6.03997e-07
6.03997e-07
5
6.03997e-07
6.03997e-07
5
5
6.03997e-07
6.03997e-07
5
6.03997e-07
6.03997e-07
5
5
6.03997e-07
6.03997e-07
5
6.03997e-07
6.03997e-07
5
5
6.03997e-07
6.03997e-07
5
)
;

boundaryField
{
    walls
    {
        type            calculated;
        value           nonuniform List<scalar> 
64
(
-0.0398779
-0.0398779
-0.0398779
-0.0398779
5
5
-0.0398779
5
5
-0.0398779
-0.0398779
5
5
-0.0398779
5
5
-4.02136e-09
-4.02143e-09
-0.0398791
-4.02136e-09
-4.02864e-09
-0.0399984
-0.0399984
-4.02864e-09
-4.02136e-09
-0.0398791
-4.02143e-09
-4.02136e-09
5
6.03997e-07
6.03997e-07
6.03997e-07
6.03997e-07
5
-0.0398791
-4.02143e-09
-4.02136e-09
5
6.03997e-07
6.03997e-07
6.03997e-07
6.03997e-07
5
-0.0399984
-4.02864e-09
-4.02136e-09
-4.02136e-09
-4.02864e-09
-0.0399984
5
6.03997e-07
6.03997e-07
6.03997e-07
6.03997e-07
5
-4.02136e-09
-4.02143e-09
-0.0398791
5
6.03997e-07
6.03997e-07
6.03997e-07
6.03997e-07
5
)
;
    }
    inlet
    {
        type            calculated;
        value           nonuniform List<scalar> 
16
(
-0.0797558
-0.0797558
-0.0797558
-0.0797558
-0.0799968
-0.0799992
-0.0797582
-0.0797582
-0.0799992
-0.0799968
-0.0799968
-0.0799992
-0.0797582
-0.0797582
-0.0799992
-0.0799968
)
;
    }
    outlet
    {
        type            calculated;
        value           uniform 10;
    }
}


// ************************************************************************* //
