/*--------------------------------*- C++ -*----------------------------------*\
| =========                 |                                                 |
| \\      /  F ield         | OpenFOAM: The Open Source CFD Toolbox           |
|  \\    /   O peration     | Version:  2.3.0                                 |
|   \\  /    A nd           | Web:      www.OpenFOAM.org                      |
|    \\/     M anipulation  |                                                 |
\*---------------------------------------------------------------------------*/
FoamFile
{
    version     2.0;
    format      ascii;
    class       volScalarField;
    location    "1.9";
    object      T;
}
// * * * * * * * * * * * * * * * * * * * * * * * * * * * * * * * * * * * * * //

dimensions      [0 0 0 1 0 0 0];

internalField   nonuniform List<scalar> 
64
(
0.00305268
0.00305268
0.00305268
0.00305268
0.00308264
0.00308264
0.00308264
0.00308264
9.9228e-06
0.00302252
4.03241e-05
0.00305244
4.00828e-05
0.00302228
1.01641e-05
9.9228e-06
0.00302252
4.03241e-05
0.00305244
4.00828e-05
0.00302228
1.01641e-05
9.9228e-06
4.03241e-05
0.00302252
0.00305244
0.00302228
4.00828e-05
1.01641e-05
9.9228e-06
4.03241e-05
0.00302252
0.00305244
0.00302228
4.00828e-05
1.01641e-05
9.96265e-06
0.00305248
0.00305248
7.02826e-05
4.01226e-05
0.00302232
4.01226e-05
9.96265e-06
0.00305248
0.00305248
7.02826e-05
4.01226e-05
0.00302232
4.01226e-05
9.96265e-06
0.00305248
7.02826e-05
0.00305248
0.00302232
4.01226e-05
4.01226e-05
9.96265e-06
0.00305248
7.02826e-05
0.00305248
0.00302232
4.01226e-05
4.01226e-05
)
;

boundaryField
{
    walls
    {
        type            fixedGradient;
        gradient        uniform 10;
    }
    inlet
    {
        type            fixedValue;
        value           uniform 1;
    }
    outlet
    {
        type            fixedGradient;
        gradient        uniform 10;
    }
}


// ************************************************************************* //
