/*--------------------------------*- C++ -*----------------------------------*\
| =========                 |                                                 |
| \\      /  F ield         | OpenFOAM: The Open Source CFD Toolbox           |
|  \\    /   O peration     | Version:  2.3.0                                 |
|   \\  /    A nd           | Web:      www.OpenFOAM.org                      |
|    \\/     M anipulation  |                                                 |
\*---------------------------------------------------------------------------*/
FoamFile
{
    version     2.0;
    format      ascii;
    class       volScalarField;
    location    "4.7";
    object      gradTz;
}
// * * * * * * * * * * * * * * * * * * * * * * * * * * * * * * * * * * * * * //

dimensions      [0 -1 0 1 0 0 0];

internalField   nonuniform List<scalar> 
64
(
-0.0396973
-0.0396973
-0.0396973
-0.0396973
5
5
5
5
-1.11964e-08
-0.0397003
-0.0399962
-1.11511e-08
-1.11959e-08
-1.11516e-08
-0.0399992
-1.11964e-08
-0.0397003
-0.0399962
-1.11511e-08
-1.11959e-08
-1.11516e-08
-0.0399992
-1.11964e-08
-0.0399962
-0.0397003
-1.11511e-08
-1.11516e-08
-1.11959e-08
-0.0399992
-1.11964e-08
-0.0399962
-0.0397003
-1.11511e-08
-1.11516e-08
-1.11959e-08
-0.0399992
1.5e-06
1.5e-06
5
5
1.5e-06
1.5e-06
5
1.5e-06
1.5e-06
5
5
1.5e-06
1.5e-06
5
1.5e-06
1.5e-06
5
5
1.5e-06
1.5e-06
5
1.5e-06
1.5e-06
5
5
1.5e-06
1.5e-06
5
)
;

boundaryField
{
    walls
    {
        type            calculated;
        value           nonuniform List<scalar> 
64
(
-0.0396973
-0.0396973
-0.0396973
-0.0396973
5
5
-0.0396973
5
5
-0.0396973
-0.0396973
5
5
-0.0396973
5
5
-1.11511e-08
-1.11516e-08
-0.0397003
-1.11511e-08
-1.11959e-08
-0.0399962
-0.0399962
-1.11959e-08
-1.11511e-08
-0.0397003
-1.11516e-08
-1.11511e-08
5
1.5e-06
1.5e-06
1.5e-06
1.5e-06
5
-0.0397003
-1.11516e-08
-1.11511e-08
5
1.5e-06
1.5e-06
1.5e-06
1.5e-06
5
-0.0399962
-1.11959e-08
-1.11511e-08
-1.11511e-08
-1.11959e-08
-0.0399962
5
1.5e-06
1.5e-06
1.5e-06
1.5e-06
5
-1.11511e-08
-1.11516e-08
-0.0397003
5
1.5e-06
1.5e-06
1.5e-06
1.5e-06
5
)
;
    }
    inlet
    {
        type            calculated;
        value           nonuniform List<scalar> 
16
(
-0.0793945
-0.0793945
-0.0793945
-0.0793945
-0.0799924
-0.0799984
-0.0794005
-0.0794005
-0.0799984
-0.0799924
-0.0799924
-0.0799984
-0.0794005
-0.0794005
-0.0799984
-0.0799924
)
;
    }
    outlet
    {
        type            calculated;
        value           uniform 10;
    }
}


// ************************************************************************* //
