/*--------------------------------*- C++ -*----------------------------------*\
| =========                 |                                                 |
| \\      /  F ield         | OpenFOAM: The Open Source CFD Toolbox           |
|  \\    /   O peration     | Version:  2.3.0                                 |
|   \\  /    A nd           | Web:      www.OpenFOAM.org                      |
|    \\/     M anipulation  |                                                 |
\*---------------------------------------------------------------------------*/
FoamFile
{
    version     2.0;
    format      ascii;
    class       volScalarField;
    location    "4.7";
    object      T;
}
// * * * * * * * * * * * * * * * * * * * * * * * * * * * * * * * * * * * * * //

dimensions      [0 0 0 1 0 0 0];

internalField   nonuniform List<scalar> 
64
(
0.00756843
0.00756843
0.00756843
0.00756843
0.00764283
0.00764283
0.00764283
0.00764283
1.93277e-05
0.00749347
9.48873e-05
0.00756783
9.42877e-05
0.00749287
1.99274e-05
1.93277e-05
0.00749347
9.48873e-05
0.00756783
9.42877e-05
0.00749287
1.99274e-05
1.93277e-05
9.48873e-05
0.00749347
0.00756783
0.00749287
9.42877e-05
1.99274e-05
1.93277e-05
9.48873e-05
0.00749347
0.00756783
0.00749287
9.42877e-05
1.99274e-05
1.93676e-05
0.00756787
0.00756787
0.000169288
9.43275e-05
0.00749291
9.43275e-05
1.93676e-05
0.00756787
0.00756787
0.000169288
9.43275e-05
0.00749291
9.43275e-05
1.93676e-05
0.00756787
0.000169288
0.00756787
0.00749291
9.43275e-05
9.43275e-05
1.93676e-05
0.00756787
0.000169288
0.00756787
0.00749291
9.43275e-05
9.43275e-05
)
;

boundaryField
{
    walls
    {
        type            fixedGradient;
        gradient        uniform 10;
    }
    inlet
    {
        type            fixedValue;
        value           uniform 1;
    }
    outlet
    {
        type            fixedGradient;
        gradient        uniform 10;
    }
}


// ************************************************************************* //
