/*--------------------------------*- C++ -*----------------------------------*\
| =========                 |                                                 |
| \\      /  F ield         | OpenFOAM: The Open Source CFD Toolbox           |
|  \\    /   O peration     | Version:  2.3.0                                 |
|   \\  /    A nd           | Web:      www.OpenFOAM.org                      |
|    \\/     M anipulation  |                                                 |
\*---------------------------------------------------------------------------*/
FoamFile
{
    version     2.0;
    format      ascii;
    class       volScalarField;
    location    "0.4";
    object      F;
}
// * * * * * * * * * * * * * * * * * * * * * * * * * * * * * * * * * * * * * //

dimensions      [0 0 0 0 0 0 0];

internalField   nonuniform List<scalar> 
64
(
0.999997
0.999997
0.999997
0.999997
0.999997
0.999997
0.999997
0.999997
1
0.999997
1
0.999997
1
0.999997
1
1
0.999997
1
0.999997
1
0.999997
1
1
1
0.999997
0.999997
0.999997
1
1
1
1
0.999997
0.999997
0.999997
1
1
1
0.999997
0.999997
1
1
0.999997
1
1
0.999997
0.999997
1
1
0.999997
1
1
0.999997
1
0.999997
0.999997
1
1
1
0.999997
1
0.999997
0.999997
1
1
)
;

boundaryField
{
    walls
    {
        type            zeroGradient;
    }
    inlet
    {
        type            zeroGradient;
    }
    outlet
    {
        type            zeroGradient;
    }
}


// ************************************************************************* //
