/*--------------------------------*- C++ -*----------------------------------*\
| =========                 |                                                 |
| \\      /  F ield         | OpenFOAM: The Open Source CFD Toolbox           |
|  \\    /   O peration     | Version:  2.3.0                                 |
|   \\  /    A nd           | Web:      www.OpenFOAM.org                      |
|    \\/     M anipulation  |                                                 |
\*---------------------------------------------------------------------------*/
FoamFile
{
    version     2.0;
    format      ascii;
    class       volScalarField;
    location    "0.4";
    object      gradTz;
}
// * * * * * * * * * * * * * * * * * * * * * * * * * * * * * * * * * * * * * //

dimensions      [0 -1 0 1 0 0 0];

internalField   nonuniform List<scalar> 
64
(
-0.0399748
-0.0399748
-0.0399748
-0.0399748
5
5
5
5
-1.8879e-10
-0.039975
-0.0399994
-1.8848e-10
-1.88787e-10
-1.88483e-10
-0.0399997
-1.8879e-10
-0.039975
-0.0399994
-1.8848e-10
-1.88787e-10
-1.88483e-10
-0.0399997
-1.88791e-10
-0.0399994
-0.039975
-1.8848e-10
-1.88483e-10
-1.88787e-10
-0.0399997
-1.88791e-10
-0.0399994
-0.039975
-1.8848e-10
-1.88483e-10
-1.88787e-10
-0.0399997
1.23997e-07
1.23997e-07
5
5
1.23997e-07
1.23997e-07
5
1.23997e-07
1.23997e-07
5
5
1.23997e-07
1.23997e-07
5
1.23997e-07
1.23997e-07
5
5
1.23997e-07
1.23997e-07
5
1.23997e-07
1.23997e-07
5
5
1.23997e-07
1.23997e-07
5
)
;

boundaryField
{
    walls
    {
        type            calculated;
        value           nonuniform List<scalar> 
64
(
-0.0399748
-0.0399748
-0.0399748
-0.0399748
5
5
-0.0399748
5
5
-0.0399748
-0.0399748
5
5
-0.0399748
5
5
-1.8848e-10
-1.88483e-10
-0.039975
-1.8848e-10
-1.88787e-10
-0.0399994
-0.0399994
-1.88787e-10
-1.8848e-10
-0.039975
-1.88483e-10
-1.8848e-10
5
1.23997e-07
1.23997e-07
1.23997e-07
1.23997e-07
5
-0.039975
-1.88483e-10
-1.8848e-10
5
1.23997e-07
1.23997e-07
1.23997e-07
1.23997e-07
5
-0.0399994
-1.88787e-10
-1.8848e-10
-1.8848e-10
-1.88787e-10
-0.0399994
5
1.23997e-07
1.23997e-07
1.23997e-07
1.23997e-07
5
-1.8848e-10
-1.88483e-10
-0.039975
5
1.23997e-07
1.23997e-07
1.23997e-07
1.23997e-07
5
)
;
    }
    inlet
    {
        type            calculated;
        value           nonuniform List<scalar> 
16
(
-0.0799496
-0.0799496
-0.0799496
-0.0799496
-0.0799988
-0.0799993
-0.0799501
-0.0799501
-0.0799993
-0.0799988
-0.0799988
-0.0799993
-0.0799501
-0.0799501
-0.0799993
-0.0799988
)
;
    }
    outlet
    {
        type            calculated;
        value           uniform 10;
    }
}


// ************************************************************************* //
