/*--------------------------------*- C++ -*----------------------------------*\
| =========                 |                                                 |
| \\      /  F ield         | OpenFOAM: The Open Source CFD Toolbox           |
|  \\    /   O peration     | Version:  2.3.0                                 |
|   \\  /    A nd           | Web:      www.OpenFOAM.org                      |
|    \\/     M anipulation  |                                                 |
\*---------------------------------------------------------------------------*/
FoamFile
{
    version     2.0;
    format      ascii;
    class       volScalarField;
    location    "5.1";
    object      gradTz;
}
// * * * * * * * * * * * * * * * * * * * * * * * * * * * * * * * * * * * * * //

dimensions      [0 -1 0 1 0 0 0];

internalField   nonuniform List<scalar> 
64
(
-0.0396715
-0.0396715
-0.0396715
-0.0396715
5
5
5
5
-1.22203e-08
-0.0396748
-0.0399959
-1.2167e-08
-1.22198e-08
-1.21675e-08
-0.0399991
-1.22203e-08
-0.0396748
-0.0399959
-1.2167e-08
-1.22198e-08
-1.21675e-08
-0.0399991
-1.22203e-08
-0.0399959
-0.0396748
-1.2167e-08
-1.21675e-08
-1.22198e-08
-0.0399991
-1.22203e-08
-0.0399959
-0.0396748
-1.2167e-08
-1.21675e-08
-1.22198e-08
-0.0399991
1.628e-06
1.628e-06
5
5
1.628e-06
1.628e-06
5
1.628e-06
1.628e-06
5
5
1.628e-06
1.628e-06
5
1.628e-06
1.628e-06
5
5
1.628e-06
1.628e-06
5
1.628e-06
1.628e-06
5
5
1.628e-06
1.628e-06
5
)
;

boundaryField
{
    walls
    {
        type            calculated;
        value           nonuniform List<scalar> 
64
(
-0.0396715
-0.0396715
-0.0396715
-0.0396715
5
5
-0.0396715
5
5
-0.0396715
-0.0396715
5
5
-0.0396715
5
5
-1.2167e-08
-1.21675e-08
-0.0396748
-1.2167e-08
-1.22198e-08
-0.0399959
-0.0399959
-1.22198e-08
-1.2167e-08
-0.0396748
-1.21675e-08
-1.2167e-08
5
1.628e-06
1.628e-06
1.628e-06
1.628e-06
5
-0.0396748
-1.21675e-08
-1.2167e-08
5
1.628e-06
1.628e-06
1.628e-06
1.628e-06
5
-0.0399959
-1.22198e-08
-1.2167e-08
-1.2167e-08
-1.22198e-08
-0.0399959
5
1.628e-06
1.628e-06
1.628e-06
1.628e-06
5
-1.2167e-08
-1.21675e-08
-0.0396748
5
1.628e-06
1.628e-06
1.628e-06
1.628e-06
5
)
;
    }
    inlet
    {
        type            calculated;
        value           nonuniform List<scalar> 
16
(
-0.079343
-0.079343
-0.079343
-0.079343
-0.0799917
-0.0799982
-0.0793495
-0.0793495
-0.0799982
-0.0799917
-0.0799917
-0.0799982
-0.0793495
-0.0793495
-0.0799982
-0.0799917
)
;
    }
    outlet
    {
        type            calculated;
        value           uniform 10;
    }
}


// ************************************************************************* //
