/*--------------------------------*- C++ -*----------------------------------*\
| =========                 |                                                 |
| \\      /  F ield         | OpenFOAM: The Open Source CFD Toolbox           |
|  \\    /   O peration     | Version:  2.3.0                                 |
|   \\  /    A nd           | Web:      www.OpenFOAM.org                      |
|    \\/     M anipulation  |                                                 |
\*---------------------------------------------------------------------------*/
FoamFile
{
    version     2.0;
    format      ascii;
    class       volScalarField;
    location    "9.3";
    object      T;
}
// * * * * * * * * * * * * * * * * * * * * * * * * * * * * * * * * * * * * * //

dimensions      [0 0 0 1 0 0 0];

internalField   nonuniform List<scalar> 
64
(
0.0149699
0.0149699
0.0149699
0.0149699
0.0151173
0.0151173
0.0151173
0.0151173
5.20895e-05
0.0148213
0.000201838
0.0149687
0.000200649
0.0148201
5.3278e-05
5.20895e-05
0.0148213
0.000201838
0.0149687
0.000200649
0.0148201
5.3278e-05
5.20895e-05
0.000201838
0.0148213
0.0149687
0.0148201
0.000200649
5.3278e-05
5.20895e-05
0.000201838
0.0148213
0.0149687
0.0148201
0.000200649
5.3278e-05
5.21294e-05
0.0149687
0.0149687
0.000349249
0.000200689
0.0148202
0.000200689
5.21294e-05
0.0149687
0.0149687
0.000349249
0.000200689
0.0148202
0.000200689
5.21294e-05
0.0149687
0.000349249
0.0149687
0.0148202
0.000200689
0.000200689
5.21294e-05
0.0149687
0.000349249
0.0149687
0.0148202
0.000200689
0.000200689
)
;

boundaryField
{
    walls
    {
        type            fixedGradient;
        gradient        uniform 10;
    }
    inlet
    {
        type            fixedValue;
        value           uniform 1;
    }
    outlet
    {
        type            fixedGradient;
        gradient        uniform 10;
    }
}


// ************************************************************************* //
