/*--------------------------------*- C++ -*----------------------------------*\
| =========                 |                                                 |
| \\      /  F ield         | OpenFOAM: The Open Source CFD Toolbox           |
|  \\    /   O peration     | Version:  2.3.0                                 |
|   \\  /    A nd           | Web:      www.OpenFOAM.org                      |
|    \\/     M anipulation  |                                                 |
\*---------------------------------------------------------------------------*/
FoamFile
{
    version     2.0;
    format      ascii;
    class       volScalarField;
    location    "4";
    object      gradTz;
}
// * * * * * * * * * * * * * * * * * * * * * * * * * * * * * * * * * * * * * //

dimensions      [0 -1 0 1 0 0 0];

internalField   nonuniform List<scalar> 
64
(
-0.0397424
-0.0397424
-0.0397424
-0.0397424
5
5
5
5
-9.4045e-09
-0.039745
-0.0399968
-9.37172e-09
-9.40417e-09
-9.37204e-09
-0.0399993
-9.4045e-09
-0.039745
-0.0399968
-9.37172e-09
-9.40417e-09
-9.37204e-09
-0.0399993
-9.4045e-09
-0.0399968
-0.039745
-9.37172e-09
-9.37204e-09
-9.40417e-09
-0.0399993
-9.4045e-09
-0.0399968
-0.039745
-9.37172e-09
-9.37204e-09
-9.40417e-09
-0.0399993
1.276e-06
1.276e-06
5
5
1.276e-06
1.276e-06
5
1.276e-06
1.276e-06
5
5
1.276e-06
1.276e-06
5
1.276e-06
1.276e-06
5
5
1.276e-06
1.276e-06
5
1.276e-06
1.276e-06
5
5
1.276e-06
1.276e-06
5
)
;

boundaryField
{
    walls
    {
        type            calculated;
        value           nonuniform List<scalar> 
64
(
-0.0397424
-0.0397424
-0.0397424
-0.0397424
5
5
-0.0397424
5
5
-0.0397424
-0.0397424
5
5
-0.0397424
5
5
-9.37172e-09
-9.37204e-09
-0.039745
-9.37172e-09
-9.40417e-09
-0.0399968
-0.0399968
-9.40417e-09
-9.37172e-09
-0.039745
-9.37204e-09
-9.37172e-09
5
1.276e-06
1.276e-06
1.276e-06
1.276e-06
5
-0.039745
-9.37204e-09
-9.37172e-09
5
1.276e-06
1.276e-06
1.276e-06
1.276e-06
5
-0.0399968
-9.40417e-09
-9.37172e-09
-9.37172e-09
-9.40417e-09
-0.0399968
5
1.276e-06
1.276e-06
1.276e-06
1.276e-06
5
-9.37172e-09
-9.37204e-09
-0.039745
5
1.276e-06
1.276e-06
1.276e-06
1.276e-06
5
)
;
    }
    inlet
    {
        type            calculated;
        value           nonuniform List<scalar> 
16
(
-0.0794848
-0.0794848
-0.0794848
-0.0794848
-0.0799936
-0.0799987
-0.0794899
-0.0794899
-0.0799987
-0.0799936
-0.0799936
-0.0799987
-0.0794899
-0.0794899
-0.0799987
-0.0799936
)
;
    }
    outlet
    {
        type            calculated;
        value           uniform 10;
    }
}


// ************************************************************************* //
