/*--------------------------------*- C++ -*----------------------------------*\
| =========                 |                                                 |
| \\      /  F ield         | OpenFOAM: The Open Source CFD Toolbox           |
|  \\    /   O peration     | Version:  2.3.0                                 |
|   \\  /    A nd           | Web:      www.OpenFOAM.org                      |
|    \\/     M anipulation  |                                                 |
\*---------------------------------------------------------------------------*/
FoamFile
{
    version     2.0;
    format      ascii;
    class       volScalarField;
    location    "4";
    object      T;
}
// * * * * * * * * * * * * * * * * * * * * * * * * * * * * * * * * * * * * * //

dimensions      [0 0 0 1 0 0 0];

internalField   nonuniform List<scalar> 
64
(
0.00644024
0.00644024
0.00644024
0.00644024
0.00650353
0.00650353
0.00650353
0.00650353
1.62272e-05
0.00637648
8.04973e-05
0.00643973
7.99872e-05
0.00637597
1.67373e-05
1.62272e-05
0.00637648
8.04973e-05
0.00643973
7.99872e-05
0.00637597
1.67373e-05
1.62272e-05
8.04973e-05
0.00637648
0.00643973
0.00637597
7.99872e-05
1.67373e-05
1.62272e-05
8.04973e-05
0.00637648
0.00643973
0.00637597
7.99872e-05
1.67373e-05
1.62671e-05
0.00643977
0.00643977
0.000143787
8.00271e-05
0.00637601
8.00271e-05
1.62671e-05
0.00643977
0.00643977
0.000143787
8.00271e-05
0.00637601
8.00271e-05
1.62671e-05
0.00643977
0.000143787
0.00643977
0.00637601
8.00271e-05
8.00271e-05
1.62671e-05
0.00643977
0.000143787
0.00643977
0.00637601
8.00271e-05
8.00271e-05
)
;

boundaryField
{
    walls
    {
        type            fixedGradient;
        gradient        uniform 10;
    }
    inlet
    {
        type            fixedValue;
        value           uniform 1;
    }
    outlet
    {
        type            fixedGradient;
        gradient        uniform 10;
    }
}


// ************************************************************************* //
